# temperature
variable	T equal 300
#cold region temperature
#variable        tlo equal 275
variable        tlo equal ${T}-${L}*${cte}/4.0
variable        tlo equal 300-${L}*${cte}/4.0
variable        tlo equal 300-50*${cte}/4.0
variable        tlo equal 300-50*1.5938/4.0
#hot region temperature
#variable        thi equal ${cte}*${L}/2+${tlo}
variable        thi equal ${T}+${L}*${cte}/4.0
variable        thi equal 300+${L}*${cte}/4.0
variable        thi equal 300+50*${cte}/4.0
variable        thi equal 300+50*1.5938/4.0

#time step (picoseconds)
variable	dt equal 0.0005 # 0.5 femtoseconds
#number of time steps for NPT
variable	tnpt equal 5000
#number of time steps for NVT
variable	tnvt equal 40000
#number of time steps for first NVE
variable	t1nve equal 100000
#number of time steps for second NVE
variable	t2nve equal 500000

################### Variable Based on LAMMPS Documentation ######################
variable	a equal 100
variable	c equal ${t2nve}
variable	c equal 500000
variable	b equal $c/$a
variable	b equal 500000/$a
variable	b equal 500000/100
variable	tdamp equal ${dt}*100
variable	tdamp equal 0.0005*100
variable	pdamp equal ${dt}*1000
variable	pdamp equal 0.0005*1000

#----------------------------------------------------------------------------------------
# setup problem
dimension       3
boundary        p p p
atom_style      atomic
lattice 	diamond ${LC} origin 0.0 0.0 0.0 orient x 1 0 0 orient y 0 1 0 orient z 0 0 1
lattice 	diamond 5.43 origin 0.0 0.0 0.0 orient x 1 0 0 orient y 0 1 0 orient z 0 0 1
Lattice spacing in x,y,z = 5.43 5.43 5.43
region          0 block 0 $L 0 $W 0 $H units lattice side in
region          0 block 0 50 0 $W 0 $H units lattice side in
region          0 block 0 50 0 22 0 $H units lattice side in
region          0 block 0 50 0 22 0 22 units lattice side in
create_box      1 0
Created orthogonal box = (0 0 0) to (271.5 119.46 119.46)
  8 by 2 by 2 MPI processor grid
create_atoms    1 region 0
Created 193600 atoms
mass		1 28.0855
#dump		1 all xyz 1000 Si_W_${W}nm.xyz
#dump_modify	1 element Si

############################################
pair_style   sw
pair_coeff   * * Si${P}.sw Si
pair_coeff   * * Si9.sw Si
thermo		100
thermo_style custom step lx
min_style cg
minimize 0.0 1.0e-8 10000 100000
WARNING: Using 'neigh_modify every 1 delay 0 check yes' setting during minimization (../min.cpp:168)
Neighbor list info ...
  update every 1 steps, delay 0 steps, check yes
  max neighbors/atom: 2000, page size: 100000
  master list distance cutoff = 5.63019
  ghost atom cutoff = 5.63019
  binsize = 2.81509, bins = 97 43 43
  1 neighbor lists, perpetual/occasional/extra = 1 0 0
  (1) pair sw, perpetual
      attributes: full, newton on
      pair build: full/bin/atomonly
      stencil: full/bin/3d
      bin: standard
Per MPI rank memory allocation (min/avg/max) = 5.239 | 5.239 | 5.239 Mbytes
Step Lx 
       0        271.5 
       1        271.5 
Loop time of 0.0530185 on 32 procs for 1 steps with 193600 atoms

67.9% CPU use with 32 MPI tasks x no OpenMP threads

Minimization stats:
  Stopping criterion = force tolerance
  Energy initial, next-to-last, final = 
        -658172.147819     -658172.147819     -658172.147819
  Force two-norm initial, final = 7.54649e-11 7.54121e-11
  Force max component initial, final = 4.37065e-13 4.39149e-13
  Final line search alpha, max atom move = 1 4.39149e-13
  Iterations, force evaluations = 1 2

MPI task timing breakdown:
Section |  min time  |  avg time  |  max time  |%varavg| %total
---------------------------------------------------------------
Pair    | 0.024841   | 0.025496   | 0.036937   |   1.3 | 48.09
Neigh   | 0          | 0          | 0          |   0.0 |  0.00
Comm    | 0.006049   | 0.0159     | 0.024356   |   4.6 | 29.99
Output  | 0          | 0          | 0          |   0.0 |  0.00
Modify  | 0          | 0          | 0          |   0.0 |  0.00
Other   |            | 0.01162    |            |       | 21.92

Nlocal:    6050 ave 6050 max 6050 min
Histogram: 32 0 0 0 0 0 0 0 0 0
Nghost:    5892.5 ave 5893 max 5892 min
Histogram: 16 0 0 0 0 0 0 0 0 16
Neighs:    0 ave 0 max 0 min
Histogram: 32 0 0 0 0 0 0 0 0 0
FullNghs:  205700 ave 205700 max 205700 min
Histogram: 32 0 0 0 0 0 0 0 0 0

Total # of neighbors = 6582400
Ave neighs/atom = 34
Neighbor list builds = 0
Dangerous builds = 0
timestep     ${dt}
timestep     0.0005
velocity 	all create $T 492845
velocity 	all create 300 492845


fix 		NPT all npt temp $T $T ${tdamp} iso 0.0 0.0 ${pdamp}
fix 		NPT all npt temp 300 $T ${tdamp} iso 0.0 0.0 ${pdamp}
fix 		NPT all npt temp 300 300 ${tdamp} iso 0.0 0.0 ${pdamp}
fix 		NPT all npt temp 300 300 0.05 iso 0.0 0.0 ${pdamp}
fix 		NPT all npt temp 300 300 0.05 iso 0.0 0.0 0.5
thermo		100
thermo_style custom step lx press
run		${tnpt}
run		5000
Per MPI rank memory allocation (min/avg/max) = 4.114 | 4.114 | 4.114 Mbytes
Step Lx Press 
       1        271.5   -52084.315 
     100    268.24658   -20685.484 
     200    266.79099   -4392.6092 
     300    266.39426   -37.167009 
     400    266.39786     79.26039 
     500    266.41952   -80.128401 
     600    266.41998    241.37553 
     700    266.44095   -155.95084 
     800    266.45788    99.771942 
     900    266.45591    46.793826 
    1000    266.48693   -45.848303 
    1100    266.48961    24.546185 
    1200    266.49631    82.514618 
    1300    266.52125   -101.85413 
    1400    266.51504    52.815507 
    1500    266.52668  -0.04317584 
    1600    266.52588    -52.05719 
    1700    266.52156    20.575948 
    1800    266.51654  -0.87787462 
    1900    266.51922   -19.204244 
    2000    266.51853   -2.9051535 
    2100    266.52027    30.246367 
    2200    266.52656   -44.579213 
    2300    266.52007    30.438773 
    2400    266.52138   -22.228207 
    2500    266.51758   -0.2668757 
    2600    266.51886    8.9683392 
    2700    266.51946  -0.99985723 
    2800    266.52575   -11.254185 
    2900    266.52082    12.215241 
    3000    266.52381   -32.706757 
    3100    266.51461     12.72684 
    3200    266.51781    11.141016 
    3300    266.52691   -28.865049 
    3400    266.51868    23.539684 
    3500     266.5202   -2.0790182 
    3600    266.52668   -31.615308 
    3700     266.5114    38.876447 
    3800    266.52309   -17.454372 
    3900    266.52431   -27.536797 
    4000    266.51043    81.404557 
    4100    266.53658   -111.35269 
    4200    266.50402    114.78784 
    4300    266.53355   -79.548957 
    4400    266.50974    45.741606 
    4500    266.52531   -12.345643 
    4600    266.51803    3.9330813 
    4700    266.52177   -12.203598 
    4800    266.52014    27.765743 
    4900    266.52207   -39.628085 
    5000     266.5173    37.726734 
    5001    266.51733    37.101117 
Loop time of 84.44 on 32 procs for 5000 steps with 193600 atoms

Performance: 2.558 ns/day, 9.382 hours/ns, 59.214 timesteps/s
78.0% CPU use with 32 MPI tasks x no OpenMP threads

MPI task timing breakdown:
Section |  min time  |  avg time  |  max time  |%varavg| %total
---------------------------------------------------------------
Pair    | 52.409     | 53.186     | 54.781     |   7.0 | 62.99
Neigh   | 0.070093   | 0.072096   | 0.074965   |   0.4 |  0.09
Comm    | 11.586     | 17.741     | 23.201     |  77.5 | 21.01
Output  | 0.024191   | 0.032272   | 0.035147   |   1.4 |  0.04
Modify  | 7.0371     | 12.361     | 17.644     |  88.6 | 14.64
Other   |            | 1.048      |            |       |  1.24

Nlocal:    6050 ave 6090 max 5989 min
Histogram: 1 2 1 2 4 7 3 5 2 5
Nghost:    5892.5 ave 5953 max 5852 min
Histogram: 5 2 5 3 7 3 3 1 2 1
Neighs:    0 ave 0 max 0 min
Histogram: 32 0 0 0 0 0 0 0 0 0
FullNghs:  205769 ave 207133 max 203705 min
Histogram: 1 2 1 2 4 7 3 5 2 5

Total # of neighbors = 6584622
Ave neighs/atom = 34.0115
Neighbor list builds = 6
Dangerous builds = 0
unfix		NPT
variable	length equal lx/${LC}
variable	length equal lx/5.43

################### Geometrical Parameters After Relaxation ###############################
# Thermostat_width
variable	TW equal ${length}/40
variable	TW equal 49.082380963053/40
# Hot_Start
variable	hs equal ${length}/4-${TW}
variable	hs equal 49.082380963053/4-${TW}
variable	hs equal 49.082380963053/4-1.22705952407632
# Hot_End
variable	he equal ${length}/4+${TW}
variable	he equal 49.082380963053/4+${TW}
variable	he equal 49.082380963053/4+1.22705952407632
# Cold_Start
variable	cs equal 3*${length}/4-${TW}
variable	cs equal 3*49.082380963053/4-${TW}
variable	cs equal 3*49.082380963053/4-1.22705952407632
# Cold_End
variable	ce equal 3*${length}/4+${TW}
variable	ce equal 3*49.082380963053/4+${TW}
variable	ce equal 3*49.082380963053/4+1.22705952407632
###########################################################################################

################### Defining Thermostat ###################################################
region 		hot block ${hs} ${he} EDGE EDGE EDGE EDGE
region 		hot block 11.0435357166869 ${he} EDGE EDGE EDGE EDGE
region 		hot block 11.0435357166869 13.4976547648396 EDGE EDGE EDGE EDGE
region 		cold block ${cs} ${ce} EDGE EDGE EDGE EDGE
region 		cold block 35.5847261982134 ${ce} EDGE EDGE EDGE EDGE
region 		cold block 35.5847261982134 38.0388452463661 EDGE EDGE EDGE EDGE
group		test region cold
9574 atoms in group test
group		test1 region hot
9561 atoms in group test1
compute		Thot all temp/region hot
compute         Tcold all temp/region cold
###########################################################################################

fix		NVT all nvt temp $T $T ${tdamp}
fix		NVT all nvt temp 300 $T ${tdamp}
fix		NVT all nvt temp 300 300 ${tdamp}
fix		NVT all nvt temp 300 300 0.05
thermo		1000
thermo_style	custom step temp
run		${tnvt}
run		40000
Per MPI rank memory allocation (min/avg/max) = 4.121 | 4.121 | 4.121 Mbytes
Step Temp 
    5001    298.98508 
    6000    299.28737 
    7000    301.61404 
    8000    299.30316 
    9000    300.87068 
   10000    300.05378 
   11000    300.17267 
   12000    299.23496 
   13000    300.32559 
   14000    301.24854 
   15000    299.33385 
   16000    299.13042 
   17000    300.23862 
   18000    297.48928 
   19000     298.1962 
   20000    299.46963 
   21000    299.91147 
   22000    300.29118 
   23000    299.54183 
   24000    301.37432 
   25000    299.34222 
   26000     300.4936 
   27000    300.20921 
   28000    299.45916 
   29000    299.88184 
   30000     300.1295 
   31000    300.43218 
   32000    298.77429 
   33000    299.63029 
   34000    298.60485 
   35000    300.48038 
   36000    301.35754 
   37000    299.81457 
   38000    300.30873 
   39000    300.84368 
   40000    299.70122 
   41000    300.78136 
   42000     300.2662 
   43000    300.23615 
   44000    299.76984 
   45000    301.41485 
   45001    301.44268 
Loop time of 651.627 on 32 procs for 40000 steps with 193600 atoms

Performance: 2.652 ns/day, 9.050 hours/ns, 61.385 timesteps/s
79.5% CPU use with 32 MPI tasks x no OpenMP threads

MPI task timing breakdown:
Section |  min time  |  avg time  |  max time  |%varavg| %total
---------------------------------------------------------------
Pair    | 424.22     | 430.19     | 443.6      |  16.9 | 66.02
Neigh   | 0          | 0          | 0          |   0.0 |  0.00
Comm    | 99.016     | 142.96     | 183.54     | 220.1 | 21.94
Output  | 0.022629   | 0.025953   | 0.029272   |   1.3 |  0.00
Modify  | 15.511     | 64.263     | 105.14     | 315.8 |  9.86
Other   |            | 14.19      |            |       |  2.18

Nlocal:    6050 ave 6125 max 6003 min
Histogram: 1 7 7 4 1 5 6 0 0 1
Nghost:    5892.5 ave 5940 max 5817 min
Histogram: 1 0 0 6 5 1 4 7 7 1
Neighs:    0 ave 0 max 0 min
Histogram: 32 0 0 0 0 0 0 0 0 0
FullNghs:  207397 ave 210117 max 205755 min
Histogram: 1 7 8 3 2 6 3 1 0 1

Total # of neighbors = 6636718
Ave neighs/atom = 34.2806
Neighbor list builds = 0
Dangerous builds = 0
velocity	all scale $T
velocity	all scale 300
unfix		NVT

fix		NVE all nve
fix		hot all langevin ${thi} ${thi} ${tdamp} 389516 tally yes
fix		hot all langevin 319.9225 ${thi} ${tdamp} 389516 tally yes
fix		hot all langevin 319.9225 319.9225 ${tdamp} 389516 tally yes
fix		hot all langevin 319.9225 319.9225 0.05 389516 tally yes
fix_modify	hot temp Thot
fix		cold all langevin ${tlo} ${tlo} ${tdamp} 46579 tally yes
fix		cold all langevin 280.0775 ${tlo} ${tdamp} 46579 tally yes
fix		cold all langevin 280.0775 280.0775 ${tdamp} 46579 tally yes
fix		cold all langevin 280.0775 280.0775 0.05 46579 tally yes
fix_modify	cold temp Tcold

thermo_style	custom step temp c_Thot c_Tcold f_hot f_cold
run		${t1nve}
run		100000
Per MPI rank memory allocation (min/avg/max) = 4.871 | 4.871 | 4.871 Mbytes
Step Temp c_Thot c_Tcold f_hot f_cold 
   45001          300    299.87695    302.77647           -0           -0 
   46000    300.56243    317.87903    280.31991   -67.386844    72.175961 
   47000    299.68823    318.36074     280.7553    -86.84468    89.284035 
   48000    299.70972    320.73433     280.3514   -98.987643    103.25965 
   49000    300.11023    323.78352    278.29709   -124.63781    131.85699 
   50000    299.31476    320.25851    280.98462   -133.64958    151.72436 
   51000    300.28922    323.73559    283.44144   -164.99062    173.33047 
   52000    299.94964    322.09995    279.30894   -188.52693    196.34925 
   53000    299.13158    318.00038    279.12084   -208.48325    221.67582 
   54000    299.82867    318.71814     285.8399   -225.57858    231.66107 
   55000    298.71841    320.09028    279.01091   -255.62807    265.48724 
   56000    299.76992    320.01262    282.52537   -268.04518    289.39584 
   57000    299.68145    318.20145    283.40678   -298.94988    319.93421 
   58000    299.70939    314.45972    280.97974   -324.31235    349.20646 
   59000    299.73349    317.97923    280.06848   -349.88202    369.23777 
   60000    298.99243    318.92729    279.54287    -383.9765    393.07091 
   61000    299.28771    316.84488    281.08859   -399.78837    419.09929 
   62000    299.70456    318.73907    279.33476   -431.73997    449.52027 
   63000    299.02947    313.91937    281.58673   -451.02369    471.86704 
   64000     300.0309    317.29785    284.66582   -479.93552    501.66134 
   65000    299.06756    315.53497    282.22104   -516.60286    532.39393 
   66000    299.94185    318.68055    280.51466   -543.22372     572.3906 
   67000    299.27225    324.06507    280.33531   -588.66813    597.98909 
   68000    299.29043    318.85138    281.41554    -614.3531    620.14387 
   69000    299.61746    318.51721     277.1876   -648.12649    659.05263 
   70000    299.80057    317.17977    282.24732   -659.87141    685.60624 
   71000    299.54898    321.75282    278.18457   -687.62187    710.68312 
   72000    299.17004    318.64221    281.74224   -714.75757    744.78135 
   73000    299.07837    320.60869    284.64132   -741.56437    759.48068 
   74000    298.83169    315.95204    283.33826   -766.82581    796.49681 
   75000    299.91159    319.96868    282.85895   -806.28007    815.15364 
   76000    299.58086    316.37379    283.26841   -821.70479    846.89737 
   77000     299.1157    311.96665    282.07363   -853.30738    876.25331 
   78000    299.37031    313.05074    284.97129   -871.19828    897.94451 
   79000    299.75469    315.85046    278.73061   -907.34217    940.00578 
   80000    299.35563    321.07158    279.15025   -949.99496    972.33002 
   81000    299.77007    320.53488    278.74073   -968.02386    1003.0348 
   82000    298.23735    315.11943    281.39813   -989.42471     1023.476 
   83000    299.75264    325.52949    281.74374   -1030.0348    1048.6611 
   84000    298.98382    321.38303    280.81711   -1050.3009    1076.4101 
   85000    299.56511    313.20682     276.8685   -1072.4582    1111.3118 
   86000    299.72864    320.21118    280.54617   -1109.7388    1135.8733 
   87000    300.04231    321.42134    281.31517   -1136.8023    1166.2387 
   88000    299.31132    317.17341    282.00955   -1163.7236    1186.5567 
   89000    299.25124    319.51607    279.65955   -1191.2823     1216.187 
   90000    299.05414    320.14162    277.46138   -1214.9116    1237.5706 
   91000    299.32283    320.85994    283.84229   -1250.4198    1267.5841 
   92000    299.43855    313.91264    280.75901   -1275.7148     1307.047 
   93000    299.81572    317.21796    279.17962   -1312.7294    1335.2488 
   94000    299.83583    322.62129    277.30419   -1350.3687    1361.2707 
   95000    299.71876    318.00892    280.94941   -1375.3977    1385.3069 
   96000    299.55385     314.2248    278.66854    -1405.607    1425.1041 
   97000      300.038     322.3887    284.33318   -1446.2595    1442.8843 
   98000    299.83471    314.58831    277.77995   -1463.0493    1484.6569 
   99000    299.91081    324.44133    283.94546   -1507.3746    1504.3229 
  100000     300.1757     321.3124     277.1895   -1533.5424    1534.7149 
  101000    300.45588    320.20364    281.67813   -1559.7299    1558.6009 
  102000    300.32013    320.08956    281.95496   -1597.5124    1574.7953 
  103000    300.73968    318.71928    285.68449    -1631.296    1604.3587 
  104000    300.65097    313.00583    282.81227   -1655.8229    1635.0885 
  105000    299.77397    316.78045    277.72189   -1677.5947    1669.5492 
  106000    300.73241    317.34974    280.79854   -1707.5103    1688.3717 
  107000    300.85461    321.08744      281.467   -1735.2462    1714.9458 
  108000    300.28022    320.36688    281.25987   -1758.6501    1748.2051 
  109000    300.53813    320.12588    283.57826   -1793.4676    1765.5422 
  110000    300.07022    316.26672    285.75917   -1815.3467    1796.2944 
  111000    300.00231    314.92236     283.6283   -1839.7955    1829.6303 
  112000    300.08195    318.76839    285.66386   -1871.1094    1855.5654 
  113000    300.66992    321.75088    282.49623   -1896.0032    1882.9247 
  114000    299.82138    323.28202    282.28178   -1923.3855    1915.5422 
  115000    299.60482    317.19821    282.57278   -1946.3391    1939.8402 
  116000    300.04855    316.23209    283.39996   -1976.0339    1966.5417 
  117000    299.41769    317.31956    279.11022   -2001.5532    2001.3076 
  118000    300.18889    323.24702    278.34034   -2034.4317    2022.9418 
  119000    299.90269    311.77705    277.36248   -2052.6682    2046.5956 
  120000    300.06198    319.00034    283.99717   -2087.1524    2070.6555 
  121000    300.23554    317.02573    282.05397   -2117.9162    2099.4448 
  122000    300.73915    321.79913    281.99115    -2153.485    2117.9223 
  123000    300.26679    318.70663    280.17263   -2177.0663    2149.0479 
  124000    299.79287    319.44647     277.9031   -2205.6569     2190.001 
  125000    300.03595    324.28581    280.69749   -2232.8545    2212.6235 
  126000    300.68731    321.45127    284.40936   -2262.9759    2234.8139 
  127000    300.73805    319.81565    280.90409   -2277.5328    2267.3664 
  128000    300.26831    318.56376    279.02134   -2314.6206    2299.4648 
  129000    299.75841     316.5056    282.63263   -2338.7576    2315.1097 
  130000    299.53422    311.80019    283.66428      -2365.2    2338.6845 
  131000    300.02671    319.11654    280.32651   -2401.3516    2378.7369 
  132000    300.68974    324.17771    278.50893   -2440.5817    2408.3358 
  133000     300.6984    317.70118    282.43731   -2468.2675    2434.5734 
  134000    300.42495    312.27893     286.1019   -2482.9327     2458.017 
  135000    300.24134    323.86563    278.01257   -2512.7654    2495.5382 
  136000    300.56313    321.96012    281.75382   -2541.6459    2526.0332 
  137000     300.2433    314.12012    281.74186   -2571.5479     2549.418 
  138000    301.09957    318.11363    282.52602   -2591.6614    2572.4374 
  139000    299.87025    316.98265    279.75237   -2610.7815    2613.0745 
  140000    299.80529     318.5534    281.03798   -2644.9091    2647.1325 
  141000     300.2455     317.9646    282.12774   -2658.1336    2673.5856 
  142000    299.52274    323.18218    283.16046   -2699.1115    2703.7126 
  143000    299.78179    317.15144    282.51452    -2718.921    2737.3988 
  144000    299.55408    317.58371     280.2212   -2761.7954    2763.9979 
  145000    299.77678    322.85569    277.34903   -2787.6907     2792.198 
  145001      299.751    322.51153     277.1013   -2787.5715    2792.2402 
Loop time of 1783.01 on 32 procs for 100000 steps with 193600 atoms

Performance: 2.423 ns/day, 9.906 hours/ns, 56.085 timesteps/s
79.4% CPU use with 32 MPI tasks x no OpenMP threads

MPI task timing breakdown:
Section |  min time  |  avg time  |  max time  |%varavg| %total
---------------------------------------------------------------
Pair    | 1064.2     | 1081       | 1112       |  37.1 | 60.63
Neigh   | 0          | 0          | 0          |   0.0 |  0.00
Comm    | 255.82     | 369.5      | 475.21     | 340.6 | 20.72
Output  | 0.095779   | 0.10811    | 0.11201    |   0.9 |  0.01
Modify  | 202.42     | 299.21     | 402.8      | 365.5 | 16.78
Other   |            | 33.2       |            |       |  1.86

Nlocal:    6050 ave 6098 max 6015 min
Histogram: 3 1 2 8 9 4 1 3 0 1
Nghost:    5892.44 ave 5928 max 5845 min
Histogram: 1 0 3 1 4 10 7 2 1 3
Neighs:    0 ave 0 max 0 min
Histogram: 32 0 0 0 0 0 0 0 0 0
FullNghs:  207476 ave 209233 max 206275 min
Histogram: 3 3 3 5 11 3 0 3 0 1

Total # of neighbors = 6639226
Ave neighs/atom = 34.2935
Neighbor list builds = 0
Dangerous builds = 0

# thermal conductivity calculation
# reset langevin thermostats to zero energy accumulation
reset_timestep 0
thermo		$c
thermo		500000
compute		ke all ke/atom
variable	temp atom c_ke/1.5/8.617332478e-5
fix		hot all langevin ${thi} ${thi} ${tdamp} 389516 tally yes
fix		hot all langevin 319.9225 ${thi} ${tdamp} 389516 tally yes
fix		hot all langevin 319.9225 319.9225 ${tdamp} 389516 tally yes
fix		hot all langevin 319.9225 319.9225 0.05 389516 tally yes
fix_modify	hot temp Thot
fix		cold all langevin ${tlo} ${tlo} ${tdamp} 46579 tally yes
fix		cold all langevin 280.0775 ${tlo} ${tdamp} 46579 tally yes
fix		cold all langevin 280.0775 280.0775 ${tdamp} 46579 tally yes
fix		cold all langevin 280.0775 280.0775 0.05 46579 tally yes
fix_modify	cold temp Tcold

compute		ch all chunk/atom bin/1d x lower 0.02 units reduced
fix		11 all ave/chunk $a $b $c ch v_temp file sw_${P}.langevin
fix		11 all ave/chunk 100 $b $c ch v_temp file sw_${P}.langevin
fix		11 all ave/chunk 100 5000 $c ch v_temp file sw_${P}.langevin
fix		11 all ave/chunk 100 5000 500000 ch v_temp file sw_${P}.langevin
fix		11 all ave/chunk 100 5000 500000 ch v_temp file sw_9.langevin
thermo_style	custom step temp c_Thot c_Tcold f_hot f_cold

run		${t2nve}
run		500000
Per MPI rank memory allocation (min/avg/max) = 5.121 | 5.121 | 5.121 Mbytes
Step Temp c_Thot c_Tcold f_hot f_cold 
       0      299.751    322.26985    277.17591           -0           -0 
  500000    300.54602    323.55257    283.85355   -14368.735    14350.266 
Loop time of 8944.3 on 32 procs for 500000 steps with 193600 atoms

Performance: 2.415 ns/day, 9.938 hours/ns, 55.902 timesteps/s
79.2% CPU use with 32 MPI tasks x no OpenMP threads

MPI task timing breakdown:
Section |  min time  |  avg time  |  max time  |%varavg| %total
---------------------------------------------------------------
Pair    | 5291.9     | 5400.7     | 5559.5     |  86.1 | 60.38
Neigh   | 0          | 0          | 0          |   0.0 |  0.00
Comm    | 1300.5     | 1886.8     | 2364.4     | 783.5 | 21.09
Output  | 0.001085   | 0.23672    | 0.2445     |   8.7 |  0.00
Modify  | 1001.7     | 1490.7     | 2059.1     | 854.1 | 16.67
Other   |            | 165.9      |            |       |  1.85

Nlocal:    6050 ave 6088 max 6024 min
Histogram: 2 5 4 4 6 4 6 0 0 1
Nghost:    5890.47 ave 5915 max 5851 min
Histogram: 1 0 0 3 4 8 4 5 3 4
Neighs:    0 ave 0 max 0 min
Histogram: 32 0 0 0 0 0 0 0 0 0
FullNghs:  207548 ave 208954 max 206719 min
Histogram: 4 1 7 7 7 1 4 0 0 1

Total # of neighbors = 6641548
Ave neighs/atom = 34.3055
Neighbor list builds = 0
Dangerous builds = 0
clear
next		P
jump		Si.in
 units       metal
#----------------------------- User Input Variables --------------------------------------
################### Geometrical Parameters ###############################
variable	P index 9 10 11 12
variable	W equal 22
# Lattice Constant
variable	LC equal 5.43
# Length
variable	L equal 50
# Width
#variable	W equal 6
# Height
variable	H equal ${W}
variable	H equal 22
################### Simulation Condition ###############################
#DT/DX=cte
variable	cte equal 1.5938
log         sw_${P}.log
log         sw_10.log
.log
