# temperature
variable	T equal 300
#cold region temperature
#variable        tlo equal 275
variable        tlo equal ${T}-${L}*${cte}/4.0
variable        tlo equal 300-${L}*${cte}/4.0
variable        tlo equal 300-50*${cte}/4.0
variable        tlo equal 300-50*1.5938/4.0
#hot region temperature
#variable        thi equal ${cte}*${L}/2+${tlo}
variable        thi equal ${T}+${L}*${cte}/4.0
variable        thi equal 300+${L}*${cte}/4.0
variable        thi equal 300+50*${cte}/4.0
variable        thi equal 300+50*1.5938/4.0

#time step (picoseconds)
variable	dt equal 0.0005 # 0.5 femtoseconds
#number of time steps for NPT
variable	tnpt equal 5000
#number of time steps for NVT
variable	tnvt equal 40000
#number of time steps for first NVE
variable	t1nve equal 100000
#number of time steps for second NVE
variable	t2nve equal 500000

################### Variable Based on LAMMPS Documentation ######################
variable	a equal 100
variable	c equal ${t2nve}
variable	c equal 500000
variable	b equal $c/$a
variable	b equal 500000/$a
variable	b equal 500000/100
variable	tdamp equal ${dt}*100
variable	tdamp equal 0.0005*100
variable	pdamp equal ${dt}*1000
variable	pdamp equal 0.0005*1000

#----------------------------------------------------------------------------------------
# setup problem
dimension       3
boundary        p p p
atom_style      atomic
lattice 	diamond ${LC} origin 0.0 0.0 0.0 orient x 1 0 0 orient y 0 1 0 orient z 0 0 1
lattice 	diamond 5.43 origin 0.0 0.0 0.0 orient x 1 0 0 orient y 0 1 0 orient z 0 0 1
Lattice spacing in x,y,z = 5.43 5.43 5.43
region          0 block 0 $L 0 $W 0 $H units lattice side in
region          0 block 0 50 0 $W 0 $H units lattice side in
region          0 block 0 50 0 22 0 $H units lattice side in
region          0 block 0 50 0 22 0 22 units lattice side in
create_box      1 0
Created orthogonal box = (0 0 0) to (271.5 119.46 119.46)
  8 by 2 by 2 MPI processor grid
create_atoms    1 region 0
Created 193600 atoms
mass		1 28.0855
#dump		1 all xyz 1000 Si_W_${W}nm.xyz
#dump_modify	1 element Si

############################################
pair_style   sw
pair_coeff   * * Si${P}.sw Si
pair_coeff   * * Si7.sw Si
thermo		100
thermo_style custom step lx
min_style cg
minimize 0.0 1.0e-8 10000 100000
WARNING: Using 'neigh_modify every 1 delay 0 check yes' setting during minimization (../min.cpp:168)
Neighbor list info ...
  update every 1 steps, delay 0 steps, check yes
  max neighbors/atom: 2000, page size: 100000
  master list distance cutoff = 6.00156
  ghost atom cutoff = 6.00156
  binsize = 3.00078, bins = 91 40 40
  1 neighbor lists, perpetual/occasional/extra = 1 0 0
  (1) pair sw, perpetual
      attributes: full, newton on
      pair build: full/bin/atomonly
      stencil: full/bin/3d
      bin: standard
Per MPI rank memory allocation (min/avg/max) = 5.235 | 5.235 | 5.235 Mbytes
Step Lx 
       0        271.5 
       1        271.5 
Loop time of 0.307245 on 32 procs for 1 steps with 193600 atoms

96.1% CPU use with 32 MPI tasks x no OpenMP threads

Minimization stats:
  Stopping criterion = force tolerance
  Energy initial, next-to-last, final = 
        -1051666.51175     -1051666.51175     -1051666.51175
  Force two-norm initial, final = 1.10515e-10 1.1044e-10
  Force max component initial, final = 6.43454e-13 6.45998e-13
  Final line search alpha, max atom move = 1 6.45998e-13
  Iterations, force evaluations = 1 2

MPI task timing breakdown:
Section |  min time  |  avg time  |  max time  |%varavg| %total
---------------------------------------------------------------
Pair    | 0.28538    | 0.28774    | 0.29242    |   0.2 | 93.65
Neigh   | 0          | 0          | 0          |   0.0 |  0.00
Comm    | 0.00694    | 0.011806   | 0.017147   |   2.1 |  3.84
Output  | 0          | 0          | 0          |   0.0 |  0.00
Modify  | 0          | 0          | 0          |   0.0 |  0.00
Other   |            | 0.007695   |            |       |  2.50

Nlocal:    6050 ave 6050 max 6050 min
Histogram: 32 0 0 0 0 0 0 0 0 0
Nghost:    5892.5 ave 5893 max 5892 min
Histogram: 16 0 0 0 0 0 0 0 0 16
Neighs:    0 ave 0 max 0 min
Histogram: 32 0 0 0 0 0 0 0 0 0
FullNghs:  278300 ave 278300 max 278300 min
Histogram: 32 0 0 0 0 0 0 0 0 0

Total # of neighbors = 8905600
Ave neighs/atom = 46
Neighbor list builds = 0
Dangerous builds = 0
timestep     ${dt}
timestep     0.0005
velocity 	all create $T 492845
velocity 	all create 300 492845


fix 		NPT all npt temp $T $T ${tdamp} iso 0.0 0.0 ${pdamp}
fix 		NPT all npt temp 300 $T ${tdamp} iso 0.0 0.0 ${pdamp}
fix 		NPT all npt temp 300 300 ${tdamp} iso 0.0 0.0 ${pdamp}
fix 		NPT all npt temp 300 300 0.05 iso 0.0 0.0 ${pdamp}
fix 		NPT all npt temp 300 300 0.05 iso 0.0 0.0 0.5
thermo		100
thermo_style custom step lx press
run		${tnpt}
run		5000
Per MPI rank memory allocation (min/avg/max) = 4.11 | 4.11 | 4.11 Mbytes
Step Lx Press 
       1        271.5    80643.557 
     100    275.54923    32786.275 
     200    277.68238    10726.853 
     300    278.58922    1631.1395 
     400    278.77232    13.434426 
     500    278.77889    57.356533 
     600    278.79375   -7.6310559 
     700     278.8095   -7.2646108 
     800    278.82003    21.590554 
     900    278.83584     13.63328 
    1000    278.84622    33.039848 
    1100    278.86127    22.037797 
    1200    278.87276    13.722536 
    1300    278.88364    5.5261623 
    1400    278.89276    15.723047 
    1500    278.89754    11.833895 
    1600    278.90329    -14.74572 
    1700    278.89962   -7.2175486 
    1800    278.89584   -4.0866457 
    1900     278.8926    3.2977352 
    2000    278.89295    14.733544 
    2100    278.89695    8.5521897 
    2200    278.90113   -10.140664 
    2300    278.89638    14.702153 
    2400    278.89753    11.888728 
    2500    278.89493   -27.647011 
    2600    278.89775    2.3450886 
    2700    278.88741    59.705699 
    2800    278.90942   -120.19001 
    2900    278.88894    148.56069 
    3000    278.89739   -32.237131 
    3100    278.90699   -104.96329 
    3200    278.88185    139.51941 
    3300      278.903   -84.426237 
    3400    278.89535    21.366507 
    3500    278.89577    8.2428082 
    3600    278.90452   -52.391522 
    3700    278.88963    66.519258 
    3800    278.90162     -70.2482 
    3900    278.89231    50.809809 
    4000    278.89333    15.716216 
    4100    278.90317   -48.198253 
    4200    278.89265    46.402874 
    4300    278.90302   -51.984662 
    4400    278.89366    35.068938 
    4500    278.89398   -6.2512405 
    4600    278.89767   -3.1238137 
    4700    278.89544    4.1867737 
    4800    278.90293    -22.28435 
    4900    278.89163    47.669632 
    5000     278.9003   -32.472625 
    5001    278.90031   -32.862926 
Loop time of 423.26 on 32 procs for 5000 steps with 193600 atoms

Performance: 0.510 ns/day, 47.029 hours/ns, 11.813 timesteps/s
91.0% CPU use with 32 MPI tasks x no OpenMP threads

MPI task timing breakdown:
Section |  min time  |  avg time  |  max time  |%varavg| %total
---------------------------------------------------------------
Pair    | 357.27     | 362.63     | 370.43     |  17.1 | 85.68
Neigh   | 0.13065    | 0.13246    | 0.13556    |   0.3 |  0.03
Comm    | 18.518     | 34.519     | 44.828     |  95.8 |  8.16
Output  | 0.026645   | 0.031993   | 0.03454    |   1.2 |  0.01
Modify  | 17.759     | 24.799     | 34.778     |  96.4 |  5.86
Other   |            | 1.144      |            |       |  0.27

Nlocal:    6050 ave 6118 max 5989 min
Histogram: 1 3 4 4 5 5 6 2 1 1
Nghost:    5892.5 ave 5953 max 5824 min
Histogram: 1 1 2 5 6 5 4 3 4 1
Neighs:    0 ave 0 max 0 min
Histogram: 32 0 0 0 0 0 0 0 0 0
FullNghs:  212702 ave 215427 max 210126 min
Histogram: 1 3 3 3 6 6 6 2 1 1

Total # of neighbors = 6806478
Ave neighs/atom = 35.1574
Neighbor list builds = 9
Dangerous builds = 0
unfix		NPT
variable	length equal lx/${LC}
variable	length equal lx/5.43

################### Geometrical Parameters After Relaxation ###############################
# Thermostat_width
variable	TW equal ${length}/40
variable	TW equal 51.3628559274192/40
# Hot_Start
variable	hs equal ${length}/4-${TW}
variable	hs equal 51.3628559274192/4-${TW}
variable	hs equal 51.3628559274192/4-1.28407139818548
# Hot_End
variable	he equal ${length}/4+${TW}
variable	he equal 51.3628559274192/4+${TW}
variable	he equal 51.3628559274192/4+1.28407139818548
# Cold_Start
variable	cs equal 3*${length}/4-${TW}
variable	cs equal 3*51.3628559274192/4-${TW}
variable	cs equal 3*51.3628559274192/4-1.28407139818548
# Cold_End
variable	ce equal 3*${length}/4+${TW}
variable	ce equal 3*51.3628559274192/4+${TW}
variable	ce equal 3*51.3628559274192/4+1.28407139818548
###########################################################################################

################### Defining Thermostat ###################################################
region 		hot block ${hs} ${he} EDGE EDGE EDGE EDGE
region 		hot block 11.5566425836693 ${he} EDGE EDGE EDGE EDGE
region 		hot block 11.5566425836693 14.1247853800403 EDGE EDGE EDGE EDGE
region 		cold block ${cs} ${ce} EDGE EDGE EDGE EDGE
region 		cold block 37.2380705473789 ${ce} EDGE EDGE EDGE EDGE
region 		cold block 37.2380705473789 39.8062133437499 EDGE EDGE EDGE EDGE
group		test region cold
9576 atoms in group test
group		test1 region hot
9572 atoms in group test1
compute		Thot all temp/region hot
compute         Tcold all temp/region cold
###########################################################################################

fix		NVT all nvt temp $T $T ${tdamp}
fix		NVT all nvt temp 300 $T ${tdamp}
fix		NVT all nvt temp 300 300 ${tdamp}
fix		NVT all nvt temp 300 300 0.05
thermo		1000
thermo_style	custom step temp
run		${tnvt}
run		40000
Per MPI rank memory allocation (min/avg/max) = 4.114 | 4.115 | 4.117 Mbytes
Step Temp 
    5001    300.58465 
    6000    301.45384 
    7000    301.50958 
    8000    299.48917 
    9000     299.1374 
   10000    297.76254 
   11000    299.04916 
   12000    299.37575 
   13000    300.89175 
   14000    301.42812 
   15000    299.96502 
   16000    299.26273 
   17000     300.1206 
   18000      301.217 
   19000    299.58164 
   20000    299.83098 
   21000    300.49514 
   22000     300.5256 
   23000    300.35569 
   24000    299.73096 
   25000    300.51565 
   26000    300.44137 
   27000    299.67795 
   28000    300.91922 
   29000    299.48315 
   30000     299.5406 
   31000    300.50694 
   32000    299.76643 
   33000    300.25581 
   34000    301.09056 
   35000    300.83769 
   36000    299.45178 
   37000     300.3822 
   38000    300.44337 
   39000    299.12456 
   40000    300.18535 
   41000    300.02831 
   42000    299.00854 
   43000    298.63957 
   44000    300.86722 
   45000    298.73806 
   45001     298.7657 
Loop time of 3231.19 on 32 procs for 40000 steps with 193600 atoms

Performance: 0.535 ns/day, 44.878 hours/ns, 12.379 timesteps/s
91.7% CPU use with 32 MPI tasks x no OpenMP threads

MPI task timing breakdown:
Section |  min time  |  avg time  |  max time  |%varavg| %total
---------------------------------------------------------------
Pair    | 2782       | 2812.2     | 2854.3     |  32.1 | 87.03
Neigh   | 0          | 0          | 0          |   0.0 |  0.00
Comm    | 186.76     | 265.03     | 325.85     | 221.8 |  8.20
Output  | 0.020915   | 0.025334   | 0.028443   |   1.4 |  0.00
Modify  | 96.045     | 139.95     | 199.45     | 317.5 |  4.33
Other   |            | 14         |            |       |  0.43

Nlocal:    6050 ave 6114 max 5996 min
Histogram: 2 3 5 5 5 2 4 4 0 2
Nghost:    5892.5 ave 5946 max 5828 min
Histogram: 2 0 4 4 1 6 5 5 3 2
Neighs:    0 ave 0 max 0 min
Histogram: 32 0 0 0 0 0 0 0 0 0
FullNghs:  216213 ave 218851 max 214275 min
Histogram: 4 3 5 3 6 1 6 2 0 2

Total # of neighbors = 6918806
Ave neighs/atom = 35.7376
Neighbor list builds = 0
Dangerous builds = 0
velocity	all scale $T
velocity	all scale 300
unfix		NVT

fix		NVE all nve
fix		hot all langevin ${thi} ${thi} ${tdamp} 389516 tally yes
fix		hot all langevin 319.9225 ${thi} ${tdamp} 389516 tally yes
fix		hot all langevin 319.9225 319.9225 ${tdamp} 389516 tally yes
fix		hot all langevin 319.9225 319.9225 0.05 389516 tally yes
fix_modify	hot temp Thot
fix		cold all langevin ${tlo} ${tlo} ${tdamp} 46579 tally yes
fix		cold all langevin 280.0775 ${tlo} ${tdamp} 46579 tally yes
fix		cold all langevin 280.0775 280.0775 ${tdamp} 46579 tally yes
fix		cold all langevin 280.0775 280.0775 0.05 46579 tally yes
fix_modify	cold temp Tcold

thermo_style	custom step temp c_Thot c_Tcold f_hot f_cold
run		${t1nve}
run		100000
Per MPI rank memory allocation (min/avg/max) = 4.864 | 4.865 | 4.867 Mbytes
Step Temp c_Thot c_Tcold f_hot f_cold 
   45001          300    302.20443    299.79592           -0           -0 
   46000    301.25719     321.1553    284.58022   -76.773313    68.879869 
   47000     300.6712    315.25084    280.56062   -103.48633    110.58237 
   48000    300.38804    320.91618      284.861   -124.74087    134.32795 
   49000     300.5569    319.11002    284.45052   -148.86666    167.08941 
   50000    300.34616    318.11622    282.05899   -175.67775    203.20238 
   51000    299.74018    316.42365    282.08033   -205.22463    226.61973 
   52000    300.17186    316.19398    283.02162   -233.95896    267.74099 
   53000    299.09945    313.88346    277.68431   -281.17337    313.32614 
   54000    299.66827    318.14667    281.80101   -329.73074    348.29005 
   55000    299.88342    318.11666    281.94135   -364.90536    384.11702 
   56000    300.85448    319.55423    280.66842   -405.34035    424.04321 
   57000    300.22171    320.19306    282.37077    -450.3048    472.09976 
   58000    300.62511    323.50455    282.93586   -497.89689    508.88915 
   59000    301.03832      318.217     284.5214     -525.512    549.44299 
   60000    299.53502    320.33553    280.90502   -583.90161    591.34364 
   61000    299.88767    316.14242     283.9815   -622.24494    643.81416 
   62000    300.99924    321.57921    280.57757   -677.35097    679.86983 
   63000    300.22487    320.85521    281.48732   -724.60464    726.62569 
   64000    301.11146    316.67375    284.99234   -764.70691    772.81239 
   65000    300.48476    319.07548    277.48466     -804.136    819.68509 
   66000    300.75303    315.06512    281.32654   -849.20222    868.56166 
   67000      300.747    315.66108     281.3222   -902.06139    912.77717 
   68000    300.12595     315.9148    280.49529   -945.30694    955.54564 
   69000    300.22718    315.39085    282.71444   -988.43086    1001.3406 
   70000    300.96708    313.89376    280.92067   -1023.7699    1058.0529 
   71000    299.99314    316.68661    283.87738   -1064.1855    1097.0209 
   72000    300.19949    319.21632    282.70288   -1117.0311     1140.614 
   73000    299.98313    313.47623    283.34506   -1153.7361    1186.1701 
   74000    299.70251    317.89254    281.58415   -1200.9744    1234.8189 
   75000    299.23358    322.27957      276.774   -1252.1453    1291.0354 
   76000     299.1087    316.41714    283.28553   -1292.3215      1335.24 
   77000    300.24283    323.43619    284.57956   -1344.8657    1379.0459 
   78000    299.52011     322.2296    278.54762   -1382.9121    1432.0817 
   79000    300.03832    319.02598    281.38272   -1430.5486    1480.0153 
   80000    300.50291    316.65571     281.8899   -1475.8518    1520.3968 
   81000    300.78724     319.0951    280.67478   -1524.4362    1559.5789 
   82000    299.87414    318.90945    281.60682   -1568.5157    1601.4631 
   83000     299.1315    314.55973    279.44621   -1614.8273    1665.5395 
   84000    300.38536    320.70117    280.90251   -1656.5669    1717.4829 
   85000    299.92893    317.38659     282.2426   -1701.0279    1765.0408 
   86000    300.41504    319.84743    283.55541    -1751.873    1800.8186 
   87000    299.46245    319.03169    281.54343   -1801.1892    1843.6805 
   88000    299.25201    314.25049    279.78858   -1854.5041    1893.1576 
   89000    299.94733    318.93641    283.59836   -1891.0012    1925.3852 
   90000    299.92524    318.40457    280.67232   -1945.5671    1980.7546 
   91000    300.08768     318.4259    280.35989   -1991.9452    2023.6209 
   92000    300.67277    316.57624    280.78675   -2038.4395    2074.4445 
   93000    300.23567    318.34898    283.31353   -2073.1973    2115.3976 
   94000      299.913    314.13594    279.25036   -2118.5322    2159.8214 
   95000    300.54357    319.29907    282.38655   -2174.0988    2200.7467 
   96000    300.11142    315.82396    282.21054   -2216.9228      2258.67 
   97000    299.62065    316.87152    277.19619   -2262.5434    2309.8723 
   98000    300.27897    320.84985    279.22487   -2301.7604    2345.2317 
   99000    300.23661    317.34243    283.49033   -2342.4284    2385.1081 
  100000    299.72341    317.83688    281.65316   -2378.1103    2425.4451 
  101000    300.00822    320.59396      285.166   -2430.9885    2468.3301 
  102000    299.86227    314.37354    279.00198   -2468.9726    2526.3141 
  103000    300.50073    318.91087    284.97442   -2521.7175    2558.2232 
  104000    299.42896      313.481    280.57797   -2559.9055    2608.8149 
  105000     299.6917    319.78183    277.60816   -2600.8471    2652.1001 
  106000    300.15811    323.67273    281.86332     -2651.11    2683.0914 
  107000    299.61518    319.17597    282.23633    -2686.706    2730.7023 
  108000    300.24414     316.4042    280.90861   -2734.6026    2771.2114 
  109000    300.77629    326.14932     283.9915   -2791.4136    2808.2105 
  110000    300.08524    315.25076    286.40162   -2821.3987    2849.1571 
  111000    299.50636    320.43243    279.67797   -2879.2427    2898.2318 
  112000    300.80292    316.91342    282.42632   -2920.3153    2941.7514 
  113000    299.70288    314.81573    281.00316   -2962.5772    2979.9459 
  114000    299.81933    317.80896    278.82638   -3014.3694    3043.0876 
  115000    300.08365      316.366    281.97115   -3044.7281    3086.1204 
  116000    300.80321    323.45757    281.90268   -3095.9496     3115.871 
  117000    299.71218    314.23489    282.66335   -3133.4843     3160.715 
  118000    299.89328     317.5395    279.65113   -3175.6605    3213.4623 
  119000    300.45878     318.9561    282.20768   -3240.0079    3252.6354 
  120000    299.44889    315.18962     281.3414   -3269.7365    3295.8731 
  121000    300.72458    315.10698    282.73593   -3313.8803    3346.5924 
  122000    301.04032    320.86489    282.48338   -3370.7473    3385.0997 
  123000     300.3819    320.28202    279.89731   -3409.6678    3438.4217 
  124000    300.67056    319.17576    279.50937   -3461.6366    3476.6349 
  125000    300.48123     323.6789    280.74229   -3502.0345    3517.8261 
  126000    300.49006     317.7267    281.98137   -3535.3551    3565.4965 
  127000    301.45148    318.16133    284.44553   -3583.2997    3602.3071 
  128000    300.94601    320.36326    281.44457   -3633.7167    3647.4155 
  129000     300.1681     316.4342    282.92503   -3668.4406    3697.5803 
  130000    299.86662    318.55685    274.89237   -3724.0915    3747.9972 
  131000    299.41839     314.8577    282.65255   -3761.0098    3789.8068 
  132000    299.42652    319.07717    280.55196   -3800.7589    3845.5154 
  133000    300.23782    320.91329    281.60237   -3855.7158    3884.5462 
  134000    299.87214    317.80309    280.67494   -3888.9636    3928.6735 
  135000    300.07073    320.09126    282.03468   -3940.3474    3969.0415 
  136000    299.96017    318.24667    280.34428   -3974.8453     4015.867 
  137000    300.13154    317.29648    279.56463   -4030.6311    4059.8471 
  138000    300.34375    320.40667    283.54919   -4079.5196    4095.0828 
  139000    300.32068    317.41218    278.71159   -4129.9466    4152.5072 
  140000    300.49106    319.71442    281.98061   -4183.0704    4191.0222 
  141000     299.9948    317.46804    280.08338   -4230.3603    4247.0914 
  142000    300.55539     320.6173    282.65332   -4292.2512    4290.4413 
  143000    301.71374    318.91816    281.05613   -4332.3547    4338.5161 
  144000    300.01352    317.23732    281.87897   -4372.3483    4387.2934 
  145000    300.60279    320.29166    282.87812   -4419.1611    4438.6804 
  145001    300.65745    321.73906    283.32575   -4420.5116    4438.1214 
Loop time of 8204.56 on 32 procs for 100000 steps with 193600 atoms

Performance: 0.527 ns/day, 45.581 hours/ns, 12.188 timesteps/s
91.7% CPU use with 32 MPI tasks x no OpenMP threads

MPI task timing breakdown:
Section |  min time  |  avg time  |  max time  |%varavg| %total
---------------------------------------------------------------
Pair    | 6971.8     | 7042.5     | 7167.1     |  53.1 | 85.84
Neigh   | 0          | 0          | 0          |   0.0 |  0.00
Comm    | 402.86     | 642.64     | 781.08     | 423.4 |  7.83
Output  | 0.097645   | 0.10409    | 0.10797    |   0.9 |  0.00
Modify  | 360.82     | 488.87     | 630.55     | 405.6 |  5.96
Other   |            | 30.44      |            |       |  0.37

Nlocal:    6050 ave 6099 max 6000 min
Histogram: 2 0 4 6 8 1 3 4 3 1
Nghost:    5892.5 ave 5943 max 5843 min
Histogram: 1 3 4 3 1 8 6 4 0 2
Neighs:    0 ave 0 max 0 min
Histogram: 32 0 0 0 0 0 0 0 0 0
FullNghs:  216225 ave 218476 max 214039 min
Histogram: 1 1 4 7 7 1 5 1 4 1

Total # of neighbors = 6919192
Ave neighs/atom = 35.7396
Neighbor list builds = 0
Dangerous builds = 0

# thermal conductivity calculation
# reset langevin thermostats to zero energy accumulation
reset_timestep 0
thermo		$c
thermo		500000
compute		ke all ke/atom
variable	temp atom c_ke/1.5/8.617332478e-5
fix		hot all langevin ${thi} ${thi} ${tdamp} 389516 tally yes
fix		hot all langevin 319.9225 ${thi} ${tdamp} 389516 tally yes
fix		hot all langevin 319.9225 319.9225 ${tdamp} 389516 tally yes
fix		hot all langevin 319.9225 319.9225 0.05 389516 tally yes
fix_modify	hot temp Thot
fix		cold all langevin ${tlo} ${tlo} ${tdamp} 46579 tally yes
fix		cold all langevin 280.0775 ${tlo} ${tdamp} 46579 tally yes
fix		cold all langevin 280.0775 280.0775 ${tdamp} 46579 tally yes
fix		cold all langevin 280.0775 280.0775 0.05 46579 tally yes
fix_modify	cold temp Tcold

compute		ch all chunk/atom bin/1d x lower 0.02 units reduced
fix		11 all ave/chunk $a $b $c ch v_temp file sw_${P}.langevin
fix		11 all ave/chunk 100 $b $c ch v_temp file sw_${P}.langevin
fix		11 all ave/chunk 100 5000 $c ch v_temp file sw_${P}.langevin
fix		11 all ave/chunk 100 5000 500000 ch v_temp file sw_${P}.langevin
fix		11 all ave/chunk 100 5000 500000 ch v_temp file sw_7.langevin
thermo_style	custom step temp c_Thot c_Tcold f_hot f_cold

run		${t2nve}
run		500000
Per MPI rank memory allocation (min/avg/max) = 5.115 | 5.115 | 5.117 Mbytes
Step Temp c_Thot c_Tcold f_hot f_cold 
       0    300.65745    321.83963    283.00409           -0           -0 
  500000    300.64525     320.9746    281.11079   -22740.564    22747.596 
Loop time of 40857.5 on 32 procs for 500000 steps with 193600 atoms

Performance: 0.529 ns/day, 45.397 hours/ns, 12.238 timesteps/s
91.8% CPU use with 32 MPI tasks x no OpenMP threads

MPI task timing breakdown:
Section |  min time  |  avg time  |  max time  |%varavg| %total
---------------------------------------------------------------
Pair    | 34856      | 35186      | 35897      | 130.0 | 86.12
Neigh   | 0          | 0          | 0          |   0.0 |  0.00
Comm    | 2250.4     | 3208.9     | 3963.7     | 886.5 |  7.85
Output  | 0.000882   | 0.0015271  | 0.001649   |   0.3 |  0.00
Modify  | 1773       | 2322.7     | 3043.5     | 883.5 |  5.68
Other   |            | 139.7      |            |       |  0.34

Nlocal:    6050 ave 6083 max 6022 min
Histogram: 1 2 4 4 12 3 2 1 1 2
Nghost:    5892.5 ave 5921 max 5860 min
Histogram: 2 1 1 3 3 11 4 4 2 1
Neighs:    0 ave 0 max 0 min
Histogram: 32 0 0 0 0 0 0 0 0 0
FullNghs:  216133 ave 217356 max 214790 min
Histogram: 2 2 1 7 1 4 9 3 1 2

Total # of neighbors = 6916242
Ave neighs/atom = 35.7244
Neighbor list builds = 0
Dangerous builds = 0
clear
next		P
jump		Si.in
 units       metal
#----------------------------- User Input Variables --------------------------------------
################### Geometrical Parameters ###############################
variable	P index 5 6 7 8
variable	W equal 22
# Lattice Constant
variable	LC equal 5.43
# Length
variable	L equal 50
# Width
#variable	W equal 6
# Height
variable	H equal ${W}
variable	H equal 22
################### Simulation Condition ###############################
#DT/DX=cte
variable	cte equal 1.5938
log         sw_${P}.log
log         sw_8.log
