# temperature
variable	T equal 300
#cold region temperature
#variable        tlo equal 275
variable        tlo equal ${T}-${L}*${cte}/4.0
variable        tlo equal 300-${L}*${cte}/4.0
variable        tlo equal 300-50*${cte}/4.0
variable        tlo equal 300-50*1.5938/4.0
#hot region temperature
#variable        thi equal ${cte}*${L}/2+${tlo}
variable        thi equal ${T}+${L}*${cte}/4.0
variable        thi equal 300+${L}*${cte}/4.0
variable        thi equal 300+50*${cte}/4.0
variable        thi equal 300+50*1.5938/4.0

#time step (picoseconds)
variable	dt equal 0.0005 # 0.5 femtoseconds
#number of time steps for NPT
variable	tnpt equal 5000
#number of time steps for NVT
variable	tnvt equal 40000
#number of time steps for first NVE
variable	t1nve equal 100000
#number of time steps for second NVE
variable	t2nve equal 500000

################### Variable Based on LAMMPS Documentation ######################
variable	a equal 100
variable	c equal ${t2nve}
variable	c equal 500000
variable	b equal $c/$a
variable	b equal 500000/$a
variable	b equal 500000/100
variable	tdamp equal ${dt}*100
variable	tdamp equal 0.0005*100
variable	pdamp equal ${dt}*1000
variable	pdamp equal 0.0005*1000

#----------------------------------------------------------------------------------------
# setup problem
dimension       3
boundary        p p p
atom_style      atomic
lattice 	diamond ${LC} origin 0.0 0.0 0.0 orient x 1 0 0 orient y 0 1 0 orient z 0 0 1
lattice 	diamond 5.43 origin 0.0 0.0 0.0 orient x 1 0 0 orient y 0 1 0 orient z 0 0 1
Lattice spacing in x,y,z = 5.43 5.43 5.43
region          0 block 0 $L 0 $W 0 $H units lattice side in
region          0 block 0 50 0 $W 0 $H units lattice side in
region          0 block 0 50 0 22 0 $H units lattice side in
region          0 block 0 50 0 22 0 22 units lattice side in
create_box      1 0
Created orthogonal box = (0 0 0) to (271.5 119.46 119.46)
  8 by 2 by 2 MPI processor grid
create_atoms    1 region 0
Created 193600 atoms
mass		1 28.0855
#dump		1 all xyz 1000 Si_W_${W}nm.xyz
#dump_modify	1 element Si

############################################
pair_style   sw
pair_coeff   * * Si${P}.sw Si
pair_coeff   * * Si10.sw Si
thermo		100
thermo_style custom step lx
min_style cg
minimize 0.0 1.0e-8 10000 100000
WARNING: Using 'neigh_modify every 1 delay 0 check yes' setting during minimization (../min.cpp:168)
Neighbor list info ...
  update every 1 steps, delay 0 steps, check yes
  max neighbors/atom: 2000, page size: 100000
  master list distance cutoff = 5.87228
  ghost atom cutoff = 5.87228
  binsize = 2.93614, bins = 93 41 41
  1 neighbor lists, perpetual/occasional/extra = 1 0 0
  (1) pair sw, perpetual
      attributes: full, newton on
      pair build: full/bin/atomonly
      stencil: full/bin/3d
      bin: standard
Per MPI rank memory allocation (min/avg/max) = 5.235 | 5.235 | 5.235 Mbytes
Step Lx 
       0        271.5 
       1        271.5 
Loop time of 0.304542 on 32 procs for 1 steps with 193600 atoms

96.0% CPU use with 32 MPI tasks x no OpenMP threads

Minimization stats:
  Stopping criterion = force tolerance
  Energy initial, next-to-last, final = 
        -925157.693443     -925157.693443     -925157.693443
  Force two-norm initial, final = 9.414e-11 9.40744e-11
  Force max component initial, final = 5.50796e-13 5.52697e-13
  Final line search alpha, max atom move = 1 5.52697e-13
  Iterations, force evaluations = 1 2

MPI task timing breakdown:
Section |  min time  |  avg time  |  max time  |%varavg| %total
---------------------------------------------------------------
Pair    | 0.28299    | 0.2855     | 0.29138    |   0.4 | 93.75
Neigh   | 0          | 0          | 0          |   0.0 |  0.00
Comm    | 0.006167   | 0.01206    | 0.017513   |   2.5 |  3.96
Output  | 0          | 0          | 0          |   0.0 |  0.00
Modify  | 0          | 0          | 0          |   0.0 |  0.00
Other   |            | 0.006984   |            |       |  2.29

Nlocal:    6050 ave 6050 max 6050 min
Histogram: 32 0 0 0 0 0 0 0 0 0
Nghost:    5892.5 ave 5893 max 5892 min
Histogram: 16 0 0 0 0 0 0 0 0 16
Neighs:    0 ave 0 max 0 min
Histogram: 32 0 0 0 0 0 0 0 0 0
FullNghs:  205700 ave 205700 max 205700 min
Histogram: 32 0 0 0 0 0 0 0 0 0

Total # of neighbors = 6582400
Ave neighs/atom = 34
Neighbor list builds = 0
Dangerous builds = 0
timestep     ${dt}
timestep     0.0005
velocity 	all create $T 492845
velocity 	all create 300 492845


fix 		NPT all npt temp $T $T ${tdamp} iso 0.0 0.0 ${pdamp}
fix 		NPT all npt temp 300 $T ${tdamp} iso 0.0 0.0 ${pdamp}
fix 		NPT all npt temp 300 300 ${tdamp} iso 0.0 0.0 ${pdamp}
fix 		NPT all npt temp 300 300 0.05 iso 0.0 0.0 ${pdamp}
fix 		NPT all npt temp 300 300 0.05 iso 0.0 0.0 0.5
thermo		100
thermo_style custom step lx press
run		${tnpt}
run		5000
Per MPI rank memory allocation (min/avg/max) = 4.11 | 4.11 | 4.11 Mbytes
Step Lx Press 
       1        271.5    30071.984 
     100     273.7305    4554.3364 
     200     274.2244   -259.95037 
     300    274.18106    56.075184 
     400    274.21311    99.700666 
     500     274.2169   -39.594029 
     600    274.23259    62.187959 
     700    274.24743   -75.232135 
     800    274.26123    31.691422 
     900    274.26562    114.03737 
    1000    274.28637   -33.347623 
    1100    274.30142   -37.657504 
    1200    274.30706    19.074131 
    1300    274.32005    14.578919 
    1400    274.32674   -9.6956416 
    1500    274.33283    18.871087 
    1600    274.33599   -41.093777 
    1700    274.33389   -3.8254706 
    1800    274.32401    60.931012 
    1900    274.33083   -53.131967 
    2000    274.32621    17.817042 
    2100    274.33017    15.899954 
    2200    274.33253   -15.868897 
    2300    274.33327   -10.626829 
    2400    274.33065    9.4298902 
    2500     274.3283      10.8074 
    2600    274.32947   -29.035693 
    2700    274.32018    79.628262 
    2800    274.33926   -70.689882 
    2900    274.33123    7.6214483 
    3000    274.32677    60.576861 
    3100    274.33758   -92.939832 
    3200    274.31803    90.495777 
    3300     274.3405   -108.91402 
    3400    274.31609    156.34817 
    3500    274.34546   -159.23966 
    3600    274.32127    135.50625 
    3700    274.33361    -75.20655 
    3800    274.33443   -2.6439311 
    3900    274.31575    94.511297 
    4000    274.34634    -159.7301 
    4100    274.31672    158.99413 
    4200    274.33782   -72.764838 
    4300    274.33439   -23.983162 
    4400    274.32062     85.15143 
    4500    274.34028   -101.98326 
    4600    274.31781    114.03765 
    4700    274.33941   -82.402164 
    4800      274.326    46.355654 
    4900    274.33467   -31.011433 
    5000    274.33103     5.181873 
    5001    274.33126    2.9405193 
Loop time of 234.091 on 32 procs for 5000 steps with 193600 atoms

Performance: 0.923 ns/day, 26.010 hours/ns, 21.359 timesteps/s
88.1% CPU use with 32 MPI tasks x no OpenMP threads

MPI task timing breakdown:
Section |  min time  |  avg time  |  max time  |%varavg| %total
---------------------------------------------------------------
Pair    | 185.96     | 188.83     | 192.33     |   9.4 | 80.66
Neigh   | 0.052213   | 0.053762   | 0.055612   |   0.3 |  0.02
Comm    | 19.554     | 26.691     | 33.352     |  76.5 | 11.40
Output  | 0.028636   | 0.034002   | 0.03718    |   1.1 |  0.01
Modify  | 12.009     | 17.447     | 23.984     |  99.6 |  7.45
Other   |            | 1.039      |            |       |  0.44

Nlocal:    6050 ave 6093 max 5979 min
Histogram: 2 1 2 1 3 4 3 6 7 3
Nghost:    5892.5 ave 5964 max 5849 min
Histogram: 3 6 7 3 4 3 1 2 1 2
Neighs:    0 ave 0 max 0 min
Histogram: 32 0 0 0 0 0 0 0 0 0
FullNghs:  212478 ave 214023 max 209563 min
Histogram: 2 0 2 1 3 3 5 3 8 5

Total # of neighbors = 6799284
Ave neighs/atom = 35.1203
Neighbor list builds = 4
Dangerous builds = 0
unfix		NPT
variable	length equal lx/${LC}
variable	length equal lx/5.43

################### Geometrical Parameters After Relaxation ###############################
# Thermostat_width
variable	TW equal ${length}/40
variable	TW equal 50.5214113812339/40
# Hot_Start
variable	hs equal ${length}/4-${TW}
variable	hs equal 50.5214113812339/4-${TW}
variable	hs equal 50.5214113812339/4-1.26303528453085
# Hot_End
variable	he equal ${length}/4+${TW}
variable	he equal 50.5214113812339/4+${TW}
variable	he equal 50.5214113812339/4+1.26303528453085
# Cold_Start
variable	cs equal 3*${length}/4-${TW}
variable	cs equal 3*50.5214113812339/4-${TW}
variable	cs equal 3*50.5214113812339/4-1.26303528453085
# Cold_End
variable	ce equal 3*${length}/4+${TW}
variable	ce equal 3*50.5214113812339/4+${TW}
variable	ce equal 3*50.5214113812339/4+1.26303528453085
###########################################################################################

################### Defining Thermostat ###################################################
region 		hot block ${hs} ${he} EDGE EDGE EDGE EDGE
region 		hot block 11.3673175607776 ${he} EDGE EDGE EDGE EDGE
region 		hot block 11.3673175607776 13.8933881298393 EDGE EDGE EDGE EDGE
region 		cold block ${cs} ${ce} EDGE EDGE EDGE EDGE
region 		cold block 36.6280232513946 ${ce} EDGE EDGE EDGE EDGE
region 		cold block 36.6280232513946 39.1540938204563 EDGE EDGE EDGE EDGE
group		test region cold
9555 atoms in group test
group		test1 region hot
9603 atoms in group test1
compute		Thot all temp/region hot
compute         Tcold all temp/region cold
###########################################################################################

fix		NVT all nvt temp $T $T ${tdamp}
fix		NVT all nvt temp 300 $T ${tdamp}
fix		NVT all nvt temp 300 300 ${tdamp}
fix		NVT all nvt temp 300 300 0.05
thermo		1000
thermo_style	custom step temp
run		${tnvt}
run		40000
Per MPI rank memory allocation (min/avg/max) = 4.118 | 4.119 | 4.121 Mbytes
Step Temp 
    5001     300.7616 
    6000    298.67622 
    7000    296.14577 
    8000     300.7986 
    9000     299.9888 
   10000    299.63415 
   11000    299.95439 
   12000    301.30781 
   13000    302.37122 
   14000    299.10322 
   15000    299.80431 
   16000     299.9998 
   17000    298.61319 
   18000    299.39867 
   19000    298.38777 
   20000    300.14074 
   21000    299.74127 
   22000    299.25654 
   23000    299.92737 
   24000    299.54589 
   25000    300.78335 
   26000    300.34137 
   27000    300.40012 
   28000    299.87013 
   29000    299.30885 
   30000    300.77762 
   31000    300.22225 
   32000     299.2881 
   33000    299.23532 
   34000    299.87633 
   35000    299.35882 
   36000    301.01398 
   37000    300.22314 
   38000    299.58417 
   39000     299.5794 
   40000     301.3527 
   41000    299.67761 
   42000    299.15748 
   43000    299.64677 
   44000    301.25431 
   45000    299.01677 
   45001    299.01173 
Loop time of 1815.6 on 32 procs for 40000 steps with 193600 atoms

Performance: 0.952 ns/day, 25.217 hours/ns, 22.031 timesteps/s
89.0% CPU use with 32 MPI tasks x no OpenMP threads

MPI task timing breakdown:
Section |  min time  |  avg time  |  max time  |%varavg| %total
---------------------------------------------------------------
Pair    | 1468.5     | 1487.9     | 1509.3     |  25.2 | 81.95
Neigh   | 0          | 0          | 0          |   0.0 |  0.00
Comm    | 141.89     | 207.15     | 276.44     | 267.7 | 11.41
Output  | 0.022987   | 0.02486    | 0.026175   |   0.6 |  0.00
Modify  | 53.395     | 106.91     | 163.24     | 335.1 |  5.89
Other   |            | 13.63      |            |       |  0.75

Nlocal:    6050 ave 6115 max 5977 min
Histogram: 1 0 6 1 4 8 8 1 2 1
Nghost:    5892.5 ave 5966 max 5828 min
Histogram: 1 2 3 6 8 4 1 6 0 1
Neighs:    0 ave 0 max 0 min
Histogram: 32 0 0 0 0 0 0 0 0 0
FullNghs:  212489 ave 214930 max 209548 min
Histogram: 1 0 4 4 3 8 2 7 1 2

Total # of neighbors = 6799640
Ave neighs/atom = 35.1221
Neighbor list builds = 0
Dangerous builds = 0
velocity	all scale $T
velocity	all scale 300
unfix		NVT

fix		NVE all nve
fix		hot all langevin ${thi} ${thi} ${tdamp} 389516 tally yes
fix		hot all langevin 319.9225 ${thi} ${tdamp} 389516 tally yes
fix		hot all langevin 319.9225 319.9225 ${tdamp} 389516 tally yes
fix		hot all langevin 319.9225 319.9225 0.05 389516 tally yes
fix_modify	hot temp Thot
fix		cold all langevin ${tlo} ${tlo} ${tdamp} 46579 tally yes
fix		cold all langevin 280.0775 ${tlo} ${tdamp} 46579 tally yes
fix		cold all langevin 280.0775 280.0775 ${tdamp} 46579 tally yes
fix		cold all langevin 280.0775 280.0775 0.05 46579 tally yes
fix_modify	cold temp Tcold

thermo_style	custom step temp c_Thot c_Tcold f_hot f_cold
run		${t1nve}
run		100000
Per MPI rank memory allocation (min/avg/max) = 4.868 | 4.869 | 4.871 Mbytes
Step Temp c_Thot c_Tcold f_hot f_cold 
   45001          300    302.08079    298.80786           -0           -0 
   46000    299.49628    314.70069    278.22496   -65.705752    78.385304 
   47000    300.16951    325.53015    286.08975   -106.50778    91.393661 
   48000     299.4217    318.52105    282.33868   -120.03351    124.84217 
   49000    299.22725    320.40279    282.46907   -146.55616    142.28284 
   50000    299.39591     321.4796    281.65408   -169.08645    159.59803 
   51000     299.8257    316.41229     280.1566   -186.30504    189.12357 
   52000    300.10763    316.73236    281.57344   -223.31713    221.44463 
   53000    300.52187     318.8667    276.95268   -262.11877    254.23662 
   54000    299.59868     315.5986    281.90201   -287.97455    284.10561 
   55000    298.96037     317.9147    277.59285   -324.56583    319.24218 
   56000    300.28428    316.18866    280.87636   -344.19151    351.76038 
   57000    299.46732    318.98334    285.32403   -391.77845    382.53808 
   58000    300.50874    319.14752     283.5323   -407.52859    414.58414 
   59000    299.29781    316.67334     280.1256   -452.21905    463.45164 
   60000    299.90961    317.78895    279.84109   -476.51102    496.00156 
   61000    299.14206    317.44066    278.70334   -514.96469    527.74027 
   62000    299.06651    318.47248    286.78614   -557.16212    558.94488 
   63000    300.41212    316.33343    281.54248   -598.39043    596.01663 
   64000    299.54781    313.68422    278.96965   -627.34535    634.56104 
   65000    300.13839    314.11361    287.00018   -669.03842    666.29667 
   66000    300.27749      319.275    282.58199   -713.22147    712.87153 
   67000    298.97206    315.57332     279.5617   -749.12472    746.70186 
   68000    300.41947    318.02696    284.07048    -795.1552    780.81892 
   69000    299.44061     312.3327    281.69884   -818.79005    820.81229 
   70000    299.82655    318.34634    277.71129   -852.58606      864.812 
   71000    299.87547    314.65027    282.75549   -895.00359    900.81362 
   72000    299.42339    314.37342    282.56708   -921.97276    928.85953 
   73000    299.94958    319.67251    286.51406   -974.47068    961.17587 
   74000    299.39965    313.96973    278.64182   -1000.0986    1005.3913 
   75000    299.66194    318.35874    284.51797   -1033.0153    1039.3057 
   76000    299.57556    319.38828    283.93745   -1083.5749    1085.9153 
   77000    299.33286    317.86918    283.86359   -1115.2122    1126.3818 
   78000    299.88284      320.908    280.56859   -1158.9448    1155.6573 
   79000    300.24747    318.74161    284.07746   -1193.3588    1185.6473 
   80000    299.69415    319.01613    282.96201   -1231.1154    1230.5564 
   81000    299.83496    321.32786    277.71811   -1271.0166     1271.481 
   82000    298.81302    316.27076    279.87412   -1300.1389    1296.8933 
   83000    299.92208    311.90963    284.46635   -1335.2052    1335.7805 
   84000    299.66654    315.98429    285.34244    -1366.676    1376.9283 
   85000    300.08828     319.8265     286.8745   -1419.7995    1414.0418 
   86000    299.81098    319.51366    281.56654   -1452.0863    1457.4402 
   87000    299.38185    316.08395    281.55475    -1499.807    1500.7882 
   88000    298.95941    320.02066    280.95857   -1534.6985    1545.4398 
   89000    299.83461    319.30453    281.80318   -1569.9394    1574.5726 
   90000    299.57649    315.44807    279.66893   -1589.1505    1608.5988 
   91000    299.00469    318.15037    279.63067   -1640.3896    1650.9948 
   92000    299.25214     317.9808    278.75972   -1678.2265    1693.8268 
   93000    299.55749     322.0831    277.83775   -1722.3328    1726.0734 
   94000    300.03572    316.19232    279.86815   -1751.1308    1760.3091 
   95000    299.73588    316.63389    280.23726   -1792.4042    1802.3477 
   96000    300.08996      317.019    282.50416   -1828.9051    1833.9483 
   97000    299.48187    311.00107    279.74635   -1847.7972    1858.7182 
   98000    299.90252    317.21998    281.61561    -1898.941    1888.8077 
   99000    300.11428    316.35759    280.42758    -1928.154    1925.1467 
  100000    300.37109    322.31031    283.06198   -1972.2389    1956.6468 
  101000    299.79258    318.14752     279.8244   -2009.5354    1995.5774 
  102000    300.32752    321.85902     287.2623   -2042.3498    2024.0749 
  103000    299.88447    315.51953    279.07473   -2079.8672    2071.9232 
  104000    299.25203    315.10798    278.31692   -2110.9315    2108.6118 
  105000    300.44861    318.19844    280.89542   -2166.1132     2145.891 
  106000    299.35345    317.68744    282.64193   -2193.3468     2180.163 
  107000    299.92491    315.69106    280.08314   -2225.1246    2217.7685 
  108000    300.04633    321.08094    283.19427   -2257.8599    2244.9087 
  109000    299.50379    319.42184     282.9768   -2298.3931    2282.5492 
  110000    299.22388     319.0796    284.87841   -2333.7193    2314.3811 
  111000    300.30169    321.08031    282.30937    -2371.633    2351.9459 
  112000    299.86468    317.91413    281.94075   -2405.8779     2389.416 
  113000    300.01294    317.73935     279.9695   -2439.9182    2426.1183 
  114000    299.97554    321.95477    279.16983   -2483.8682    2453.6166 
  115000    300.24883    320.75462    280.39724   -2520.8999     2489.071 
  116000    299.91667    323.74891    281.74707   -2555.7019    2526.9253 
  117000    299.71841    316.57252    278.62098   -2598.5963    2575.4005 
  118000    300.09574    323.10254    279.86351   -2628.9717    2615.8162 
  119000    300.38615    320.49526    285.72279   -2667.1897    2650.5397 
  120000    299.44514    312.13909    282.78206   -2685.8038    2690.1357 
  121000    299.33822    316.48628    280.54159   -2720.4595    2713.8696 
  122000    299.69423    311.11353    278.93617   -2754.2665    2755.8288 
  123000    300.13702    318.06358    283.44009   -2794.6251     2788.822 
  124000    299.54119    314.90056    282.28546   -2824.4263    2828.5598 
  125000    299.95187    320.62119    280.71737   -2862.5697    2863.9904 
  126000    299.34062     321.5782    280.39496   -2894.7399    2906.7631 
  127000    299.20383     316.3175      280.669   -2927.0986    2941.2458 
  128000    299.56492    318.69305    284.89007   -2963.7015    2974.1045 
  129000    299.85077    319.36945    282.91296   -3007.2743    2999.3654 
  130000    300.05183    321.51434    279.63781   -3048.2736    3041.0028 
  131000    299.31215    315.65808    280.39777   -3074.0816    3073.1237 
  132000    300.17518    319.40151    280.78215   -3121.7121     3104.947 
  133000    299.71251    317.94436    281.91286   -3153.9357    3147.2695 
  134000    300.02507    318.08134    286.93972   -3184.7239    3183.3134 
  135000    299.92103    316.96649    280.89049   -3215.0995    3223.3503 
  136000    299.85822    317.69655    280.96766   -3252.1452    3261.0481 
  137000    299.54372     318.9287    286.20898   -3283.0404    3288.9136 
  138000    299.15982    315.90006    282.84576    -3316.177    3328.8163 
  139000    299.28774    321.46154    280.31233   -3354.3168    3365.1332 
  140000    300.01388    319.40861    282.68342   -3385.9698    3392.4712 
  141000    300.13904    318.43148    285.54581   -3418.5646    3423.9773 
  142000    299.32761    319.26296    280.41396   -3463.9583    3474.3828 
  143000    299.90582    318.07994    282.67872   -3503.9997    3498.1156 
  144000     298.9851    318.06921    282.61422    -3528.634    3525.2943 
  145000    299.22674    315.62983    280.64999   -3564.4759    3566.7984 
  145001    299.25086    315.86819    280.52953   -3564.8883    3567.2954 
Loop time of 4666.48 on 32 procs for 100000 steps with 193600 atoms

Performance: 0.926 ns/day, 25.925 hours/ns, 21.429 timesteps/s
88.9% CPU use with 32 MPI tasks x no OpenMP threads

MPI task timing breakdown:
Section |  min time  |  avg time  |  max time  |%varavg| %total
---------------------------------------------------------------
Pair    | 3677.5     | 3718.4     | 3782.8     |  43.1 | 79.68
Neigh   | 0          | 0          | 0          |   0.0 |  0.00
Comm    | 349.73     | 525.28     | 664.53     | 339.6 | 11.26
Output  | 0.097251   | 0.10474    | 0.1082     |   0.9 |  0.00
Modify  | 275.28     | 391.18     | 510.23     | 388.2 |  8.38
Other   |            | 31.47      |            |       |  0.67

Nlocal:    6050 ave 6097 max 5996 min
Histogram: 1 5 1 3 5 0 7 6 1 3
Nghost:    5892.5 ave 5947 max 5845 min
Histogram: 3 1 6 7 0 5 3 1 5 1
Neighs:    0 ave 0 max 0 min
Histogram: 32 0 0 0 0 0 0 0 0 0
FullNghs:  212530 ave 214355 max 210368 min
Histogram: 1 4 2 3 4 2 6 6 1 3

Total # of neighbors = 6800948
Ave neighs/atom = 35.1289
Neighbor list builds = 0
Dangerous builds = 0

# thermal conductivity calculation
# reset langevin thermostats to zero energy accumulation
reset_timestep 0
thermo		$c
thermo		500000
compute		ke all ke/atom
variable	temp atom c_ke/1.5/8.617332478e-5
fix		hot all langevin ${thi} ${thi} ${tdamp} 389516 tally yes
fix		hot all langevin 319.9225 ${thi} ${tdamp} 389516 tally yes
fix		hot all langevin 319.9225 319.9225 ${tdamp} 389516 tally yes
fix		hot all langevin 319.9225 319.9225 0.05 389516 tally yes
fix_modify	hot temp Thot
fix		cold all langevin ${tlo} ${tlo} ${tdamp} 46579 tally yes
fix		cold all langevin 280.0775 ${tlo} ${tdamp} 46579 tally yes
fix		cold all langevin 280.0775 280.0775 ${tdamp} 46579 tally yes
fix		cold all langevin 280.0775 280.0775 0.05 46579 tally yes
fix_modify	cold temp Tcold

compute		ch all chunk/atom bin/1d x lower 0.02 units reduced
fix		11 all ave/chunk $a $b $c ch v_temp file sw_${P}.langevin
fix		11 all ave/chunk 100 $b $c ch v_temp file sw_${P}.langevin
fix		11 all ave/chunk 100 5000 $c ch v_temp file sw_${P}.langevin
fix		11 all ave/chunk 100 5000 500000 ch v_temp file sw_${P}.langevin
fix		11 all ave/chunk 100 5000 500000 ch v_temp file sw_10.langevin
thermo_style	custom step temp c_Thot c_Tcold f_hot f_cold

run		${t2nve}
run		500000
Per MPI rank memory allocation (min/avg/max) = 5.118 | 5.12 | 5.121 Mbytes
Step Temp c_Thot c_Tcold f_hot f_cold 
       0    299.25086    315.62042    281.02328           -0           -0 
  500000    299.33359    311.60266    282.75742   -17645.982    17631.608 
Loop time of 23245.3 on 32 procs for 500000 steps with 193600 atoms

Performance: 0.929 ns/day, 25.828 hours/ns, 21.510 timesteps/s
89.0% CPU use with 32 MPI tasks x no OpenMP threads

MPI task timing breakdown:
Section |  min time  |  avg time  |  max time  |%varavg| %total
---------------------------------------------------------------
Pair    | 18335      | 18585      | 18934      |  87.7 | 79.95
Neigh   | 0          | 0          | 0          |   0.0 |  0.00
Comm    | 1653.9     | 2603.7     | 3124.7     | 823.6 | 11.20
Output  | 0.003246   | 0.0067414  | 0.00823    |   1.8 |  0.00
Modify  | 1403.1     | 1911       | 2537.5     | 886.1 |  8.22
Other   |            | 145.3      |            |       |  0.62

Nlocal:    6050 ave 6098 max 6012 min
Histogram: 1 3 4 4 8 7 2 1 0 2
Nghost:    5892.5 ave 5930 max 5845 min
Histogram: 2 0 1 2 7 8 4 4 3 1
Neighs:    0 ave 0 max 0 min
Histogram: 32 0 0 0 0 0 0 0 0 0
FullNghs:  212558 ave 214635 max 211172 min
Histogram: 2 5 0 9 7 6 1 0 1 1

Total # of neighbors = 6801858
Ave neighs/atom = 35.1336
Neighbor list builds = 0
Dangerous builds = 0
clear
next		P
jump		Si.in
 units       metal
#----------------------------- User Input Variables --------------------------------------
################### Geometrical Parameters ###############################
variable	P index 9 10 11 12
variable	W equal 22
# Lattice Constant
variable	LC equal 5.43
# Length
variable	L equal 50
# Width
#variable	W equal 6
# Height
variable	H equal ${W}
variable	H equal 22
################### Simulation Condition ###############################
#DT/DX=cte
variable	cte equal 1.5938
log         sw_${P}.log
log         sw_11.log

