# temperature
variable	T equal 300
#cold region temperature
#variable        tlo equal 275
variable        tlo equal ${T}-${L}*${cte}/4.0
variable        tlo equal 300-${L}*${cte}/4.0
variable        tlo equal 300-50*${cte}/4.0
variable        tlo equal 300-50*1.5938/4.0
#hot region temperature
#variable        thi equal ${cte}*${L}/2+${tlo}
variable        thi equal ${T}+${L}*${cte}/4.0
variable        thi equal 300+${L}*${cte}/4.0
variable        thi equal 300+50*${cte}/4.0
variable        thi equal 300+50*1.5938/4.0

#time step (picoseconds)
variable	dt equal 0.0005 # 0.5 femtoseconds
#number of time steps for NPT
variable	tnpt equal 5000
#number of time steps for NVT
variable	tnvt equal 40000
#number of time steps for first NVE
variable	t1nve equal 100000
#number of time steps for second NVE
variable	t2nve equal 500000

################### Variable Based on LAMMPS Documentation ######################
variable	a equal 100
variable	c equal ${t2nve}
variable	c equal 500000
variable	b equal $c/$a
variable	b equal 500000/$a
variable	b equal 500000/100
variable	tdamp equal ${dt}*100
variable	tdamp equal 0.0005*100
variable	pdamp equal ${dt}*1000
variable	pdamp equal 0.0005*1000

#----------------------------------------------------------------------------------------
# setup problem
dimension       3
boundary        p p p
atom_style      atomic
lattice 	diamond ${LC} origin 0.0 0.0 0.0 orient x 1 0 0 orient y 0 1 0 orient z 0 0 1
lattice 	diamond 5.43 origin 0.0 0.0 0.0 orient x 1 0 0 orient y 0 1 0 orient z 0 0 1
Lattice spacing in x,y,z = 5.43 5.43 5.43
region          0 block 0 $L 0 $W 0 $H units lattice side in
region          0 block 0 50 0 $W 0 $H units lattice side in
region          0 block 0 50 0 22 0 $H units lattice side in
region          0 block 0 50 0 22 0 22 units lattice side in
create_box      1 0
Created orthogonal box = (0 0 0) to (271.5 119.46 119.46)
  8 by 2 by 2 MPI processor grid
create_atoms    1 region 0
Created 193600 atoms
mass		1 28.0855
#dump		1 all xyz 1000 Si_W_${W}nm.xyz
#dump_modify	1 element Si

############################################
pair_style   sw
pair_coeff   * * Si${P}.sw Si
pair_coeff   * * Si14.sw Si
thermo		100
thermo_style custom step lx
min_style cg
minimize 0.0 1.0e-8 10000 100000
WARNING: Using 'neigh_modify every 1 delay 0 check yes' setting during minimization (../min.cpp:168)
Neighbor list info ...
  update every 1 steps, delay 0 steps, check yes
  max neighbors/atom: 2000, page size: 100000
  master list distance cutoff = 5.62987
  ghost atom cutoff = 5.62987
  binsize = 2.81493, bins = 97 43 43
  1 neighbor lists, perpetual/occasional/extra = 1 0 0
  (1) pair sw, perpetual
      attributes: full, newton on
      pair build: full/bin/atomonly
      stencil: full/bin/3d
      bin: standard
Per MPI rank memory allocation (min/avg/max) = 5.239 | 5.239 | 5.239 Mbytes
Step Lx 
       0        271.5 
       1        271.5 
Loop time of 0.0410362 on 32 procs for 1 steps with 193600 atoms

76.4% CPU use with 32 MPI tasks x no OpenMP threads

Minimization stats:
  Stopping criterion = force tolerance
  Energy initial, next-to-last, final = 
        -650075.537015     -650075.537015     -650075.537015
  Force two-norm initial, final = 7.9234e-11 7.91765e-11
  Force max component initial, final = 4.60616e-13 4.62796e-13
  Final line search alpha, max atom move = 1 4.62796e-13
  Iterations, force evaluations = 1 2

MPI task timing breakdown:
Section |  min time  |  avg time  |  max time  |%varavg| %total
---------------------------------------------------------------
Pair    | 0.024455   | 0.024763   | 0.025188   |   0.1 | 60.34
Neigh   | 0          | 0          | 0          |   0.0 |  0.00
Comm    | 0.006558   | 0.0097322  | 0.013458   |   2.0 | 23.72
Output  | 0          | 0          | 0          |   0.0 |  0.00
Modify  | 0          | 0          | 0          |   0.0 |  0.00
Other   |            | 0.006541   |            |       | 15.94

Nlocal:    6050 ave 6050 max 6050 min
Histogram: 32 0 0 0 0 0 0 0 0 0
Nghost:    5892.5 ave 5893 max 5892 min
Histogram: 16 0 0 0 0 0 0 0 0 16
Neighs:    0 ave 0 max 0 min
Histogram: 32 0 0 0 0 0 0 0 0 0
FullNghs:  205700 ave 205700 max 205700 min
Histogram: 32 0 0 0 0 0 0 0 0 0

Total # of neighbors = 6582400
Ave neighs/atom = 34
Neighbor list builds = 0
Dangerous builds = 0
timestep     ${dt}
timestep     0.0005
velocity 	all create $T 492845
velocity 	all create 300 492845


fix 		NPT all npt temp $T $T ${tdamp} iso 0.0 0.0 ${pdamp}
fix 		NPT all npt temp 300 $T ${tdamp} iso 0.0 0.0 ${pdamp}
fix 		NPT all npt temp 300 300 ${tdamp} iso 0.0 0.0 ${pdamp}
fix 		NPT all npt temp 300 300 0.05 iso 0.0 0.0 ${pdamp}
fix 		NPT all npt temp 300 300 0.05 iso 0.0 0.0 0.5
thermo		100
thermo_style custom step lx press
run		${tnpt}
run		5000
Per MPI rank memory allocation (min/avg/max) = 4.114 | 4.114 | 4.114 Mbytes
Step Lx Press 
       1        271.5   -54811.799 
     100    268.15033   -22470.177 
     200    266.59472   -5733.9335 
     300     266.1029   -163.07068 
     400    266.09576    170.17388 
     500     266.1158    -98.29395 
     600    266.12662    187.96001 
     700    266.15121   -146.08695 
     800    266.15677    184.87925 
     900    266.17923    -27.29038 
    1000    266.19542   -6.6479611 
    1100    266.21051    16.012965 
    1200    266.22024    69.843457 
    1300    266.23769   -27.971205 
    1400    266.24429    1.8748084 
    1500    266.25036    21.699305 
    1600    266.25039   -32.891889 
    1700    266.24255    36.567862 
    1800    266.24293   -56.067941 
    1900    266.23816     45.61574 
    2000    266.24233    8.3180972 
    2100     266.2464   -14.481304 
    2200    266.24821     18.13308 
    2300    266.24467    7.8724643 
    2400    266.24367  -0.81528926 
    2500     266.2412   -3.1658307 
    2600    266.24175    17.031164 
    2700    266.24221   -19.661695 
    2800    266.24379    32.704479 
    2900    266.25199   -47.057151 
    3000    266.24393   -11.215304 
    3100    266.24121    38.091735 
    3200    266.24325   -54.518721 
    3300    266.23598    69.980388 
    3400    266.25334   -94.180917 
    3500    266.23523     132.5317 
    3600      266.259   -152.47343 
    3700    266.23019    151.02227 
    3800    266.25413   -153.03622 
    3900    266.23164    128.74257 
    4000    266.24924   -91.690092 
    4100    266.24466    9.9564396 
    4200    266.24262    41.242255 
    4300    266.24962   -78.641486 
    4400    266.24044    47.841545 
    4500    266.24062   -19.558796 
    4600    266.24514   -3.3258924 
    4700    266.23965    20.844365 
    4800    266.25164   -34.116712 
    4900    266.23929     43.42141 
    5000    266.24973   -51.535314 
    5001    266.24988   -53.313926 
Loop time of 80.4971 on 32 procs for 5000 steps with 193600 atoms

Performance: 2.683 ns/day, 8.944 hours/ns, 62.114 timesteps/s
78.3% CPU use with 32 MPI tasks x no OpenMP threads

MPI task timing breakdown:
Section |  min time  |  avg time  |  max time  |%varavg| %total
---------------------------------------------------------------
Pair    | 49.738     | 50.51      | 51.4       |   5.7 | 62.75
Neigh   | 0.080877   | 0.08463    | 0.087278   |   0.5 |  0.11
Comm    | 11.061     | 17.044     | 22.324     |  80.3 | 21.17
Output  | 0.022989   | 0.03038    | 0.033205   |   1.4 |  0.04
Modify  | 6.9396     | 11.904     | 17.035     |  93.1 | 14.79
Other   |            | 0.9238     |            |       |  1.15

Nlocal:    6050 ave 6100 max 5975 min
Histogram: 1 0 1 3 5 5 4 8 3 2
Nghost:    5892.5 ave 5967 max 5843 min
Histogram: 2 3 9 3 3 7 3 1 0 1
Neighs:    0 ave 0 max 0 min
Histogram: 32 0 0 0 0 0 0 0 0 0
FullNghs:  205919 ave 207652 max 203373 min
Histogram: 1 0 1 4 5 4 5 8 2 2

Total # of neighbors = 6589394
Ave neighs/atom = 34.0361
Neighbor list builds = 7
Dangerous builds = 0
unfix		NPT
variable	length equal lx/${LC}
variable	length equal lx/5.43

################### Geometrical Parameters After Relaxation ###############################
# Thermostat_width
variable	TW equal ${length}/40
variable	TW equal 49.0331278529619/40
# Hot_Start
variable	hs equal ${length}/4-${TW}
variable	hs equal 49.0331278529619/4-${TW}
variable	hs equal 49.0331278529619/4-1.22582819632405
# Hot_End
variable	he equal ${length}/4+${TW}
variable	he equal 49.0331278529619/4+${TW}
variable	he equal 49.0331278529619/4+1.22582819632405
# Cold_Start
variable	cs equal 3*${length}/4-${TW}
variable	cs equal 3*49.0331278529619/4-${TW}
variable	cs equal 3*49.0331278529619/4-1.22582819632405
# Cold_End
variable	ce equal 3*${length}/4+${TW}
variable	ce equal 3*49.0331278529619/4+${TW}
variable	ce equal 3*49.0331278529619/4+1.22582819632405
###########################################################################################

################### Defining Thermostat ###################################################
region 		hot block ${hs} ${he} EDGE EDGE EDGE EDGE
region 		hot block 11.0324537669164 ${he} EDGE EDGE EDGE EDGE
region 		hot block 11.0324537669164 13.4841101595645 EDGE EDGE EDGE EDGE
region 		cold block ${cs} ${ce} EDGE EDGE EDGE EDGE
region 		cold block 35.5490176933974 ${ce} EDGE EDGE EDGE EDGE
region 		cold block 35.5490176933974 38.0006740860455 EDGE EDGE EDGE EDGE
group		test region cold
9604 atoms in group test
group		test1 region hot
9566 atoms in group test1
compute		Thot all temp/region hot
compute         Tcold all temp/region cold
###########################################################################################

fix		NVT all nvt temp $T $T ${tdamp}
fix		NVT all nvt temp 300 $T ${tdamp}
fix		NVT all nvt temp 300 300 ${tdamp}
fix		NVT all nvt temp 300 300 0.05
thermo		1000
thermo_style	custom step temp
run		${tnvt}
run		40000
Per MPI rank memory allocation (min/avg/max) = 4.118 | 4.12 | 4.121 Mbytes
Step Temp 
    5001    301.93067 
    6000     297.7753 
    7000    298.36574 
    8000    299.80811 
    9000    298.07693 
   10000    299.12934 
   11000    300.69772 
   12000    299.11557 
   13000    299.48608 
   14000    301.74164 
   15000    299.94187 
   16000    301.00958 
   17000    299.65815 
   18000    300.69098 
   19000    301.28465 
   20000    300.03569 
   21000    299.62539 
   22000    299.41827 
   23000    299.71704 
   24000    300.40119 
   25000    300.21506 
   26000    299.34301 
   27000    300.56387 
   28000     300.2711 
   29000    299.91374 
   30000    300.44529 
   31000    300.23715 
   32000    300.06761 
   33000    299.59462 
   34000    301.16428 
   35000    299.26448 
   36000    300.14942 
   37000    300.47812 
   38000    301.33573 
   39000    300.21448 
   40000    300.25859 
   41000    300.07948 
   42000    300.08426 
   43000    299.91485 
   44000    300.17974 
   45000     300.0349 
   45001    300.03007 
Loop time of 629.195 on 32 procs for 40000 steps with 193600 atoms

Performance: 2.746 ns/day, 8.739 hours/ns, 63.573 timesteps/s
78.9% CPU use with 32 MPI tasks x no OpenMP threads

MPI task timing breakdown:
Section |  min time  |  avg time  |  max time  |%varavg| %total
---------------------------------------------------------------
Pair    | 400.85     | 406.07     | 412.04     |  14.3 | 64.54
Neigh   | 0          | 0          | 0          |   0.0 |  0.00
Comm    | 97.565     | 144.48     | 187.47     | 226.5 | 22.96
Output  | 0.021939   | 0.024842   | 0.027714   |   1.3 |  0.00
Modify  | 24.559     | 65.051     | 106.7      | 322.2 | 10.34
Other   |            | 13.57      |            |       |  2.16

Nlocal:    6050 ave 6099 max 5984 min
Histogram: 1 3 4 1 3 1 6 6 5 2
Nghost:    5892.5 ave 5959 max 5843 min
Histogram: 2 5 5 7 1 3 2 3 3 1
Neighs:    0 ave 0 max 0 min
Histogram: 32 0 0 0 0 0 0 0 0 0
FullNghs:  206966 ave 208661 max 204599 min
Histogram: 1 3 3 2 2 2 5 7 5 2

Total # of neighbors = 6622898
Ave neighs/atom = 34.2092
Neighbor list builds = 0
Dangerous builds = 0
velocity	all scale $T
velocity	all scale 300
unfix		NVT

fix		NVE all nve
fix		hot all langevin ${thi} ${thi} ${tdamp} 389516 tally yes
fix		hot all langevin 319.9225 ${thi} ${tdamp} 389516 tally yes
fix		hot all langevin 319.9225 319.9225 ${tdamp} 389516 tally yes
fix		hot all langevin 319.9225 319.9225 0.05 389516 tally yes
fix_modify	hot temp Thot
fix		cold all langevin ${tlo} ${tlo} ${tdamp} 46579 tally yes
fix		cold all langevin 280.0775 ${tlo} ${tdamp} 46579 tally yes
fix		cold all langevin 280.0775 280.0775 ${tdamp} 46579 tally yes
fix		cold all langevin 280.0775 280.0775 0.05 46579 tally yes
fix_modify	cold temp Tcold

thermo_style	custom step temp c_Thot c_Tcold f_hot f_cold
run		${t1nve}
run		100000
Per MPI rank memory allocation (min/avg/max) = 4.868 | 4.87 | 4.871 Mbytes
Step Temp c_Thot c_Tcold f_hot f_cold 
   45001          300      301.706    301.46308           -0           -0 
   46000    300.49693    316.62008    282.46489   -67.701839    81.763192 
   47000    299.28196    318.78018    279.07569   -95.860738    106.76978 
   48000    300.96003    320.43412    286.58552   -114.33781    108.71824 
   49000    298.85304    320.07558    277.36509   -135.26973    148.35088 
   50000     300.5011    319.70938    280.00598   -159.42357    170.55557 
   51000     299.5202    319.17706     282.4856   -188.23679    183.71829 
   52000    300.40198    322.52804    282.22734   -220.90077    218.60437 
   53000    299.59282    311.82431    281.56655   -239.04856    250.72336 
   54000    300.04738    316.14009    281.34038   -271.19835    269.05867 
   55000    299.03198    314.36231    279.09425   -301.67845    312.30368 
   56000    298.93539    317.31117    276.92974   -341.08702    359.47999 
   57000    299.55503     317.9943    284.11678   -369.91949    381.10903 
   58000    299.73004    315.97712    286.27667   -410.03243    397.70102 
   59000    300.10033    318.30155    282.44415   -440.04923    439.24624 
   60000    298.56495    314.70904    277.47018   -460.85558    478.66622 
   61000    300.08453    314.75491    284.78532   -500.07443    515.69223 
   62000      300.092    318.66584    279.84469   -559.43405    541.55845 
   63000    299.89313    314.44678    282.01722   -582.63265    579.82194 
   64000    301.04993    319.29588    279.06347   -624.91959    603.42113 
   65000    301.00605    322.06643    285.88363   -648.10112    626.97602 
   66000     300.2575    317.64316    277.59263   -685.71874    669.79927 
   67000    300.86531    320.45302    287.11622   -716.34246    685.62488 
   68000      301.631    319.76875    282.40826   -756.29453    728.26359 
   69000     301.1734    321.80155     284.0328   -794.55467    745.73987 
   70000    301.22864    321.67413    283.98333   -834.60698    792.21968 
   71000    301.34465     315.1561     283.0285   -850.06537     812.8843 
   72000    300.20749    314.10163    282.54574   -878.19099    854.05593 
   73000    300.18084    317.30397    281.59627   -908.52272    888.14263 
   74000    300.10746     316.9992    287.40343   -927.81605    925.21444 
   75000    299.26903    319.61716    284.54429   -963.14794    963.08291 
   76000    299.81811    316.38604    275.61838   -997.93116    1009.4343 
   77000    299.13184     317.7185    278.23225   -1030.2741    1035.4121 
   78000    299.85779    320.35044    281.72009   -1068.2025    1076.4498 
   79000    300.01505    321.70994    284.61127    -1111.873    1104.0098 
   80000    300.18753    318.89051    282.55789   -1140.3397    1140.1423 
   81000    299.55023    316.04429    281.80029   -1167.9818    1169.6488 
   82000    299.09532     316.3437    283.22047   -1195.3425     1208.944 
   83000    300.25618    319.20187    275.40908   -1240.1192    1244.1762 
   84000    300.40588    319.98252    280.35914   -1277.8444     1278.534 
   85000    300.00556    316.03737    286.64347   -1309.9652    1303.3128 
   86000    300.23677    317.25909    280.03519   -1336.8194    1338.8879 
   87000    298.93584    319.17198    276.22987   -1375.0269    1372.7162 
   88000    299.80374    316.43304     279.9567   -1395.4047    1410.0046 
   89000    299.04046     315.8759    278.92377   -1439.4312    1454.9356 
   90000    299.45943    318.60296    279.23156   -1477.0163    1486.7091 
   91000    300.13699    322.50806    279.40978   -1519.4585    1509.7991 
   92000    299.89615    315.90833    283.69024   -1554.3294    1541.0971 
   93000    299.93557     319.2478    281.17504    -1584.347    1578.6649 
   94000     299.8381    320.41695    285.64474    -1625.339    1606.9641 
   95000    299.56622    311.33359    277.96311   -1654.0715    1646.8706 
   96000    301.05974    320.89683    282.35693   -1689.1466      1669.76 
   97000    300.04769    318.04796    280.73224   -1734.5907    1705.0611 
   98000    300.14973    318.87223    283.14424   -1763.7493    1729.8238 
   99000    300.40537    318.29468    281.07867   -1805.1479    1772.4246 
  100000    300.97097     322.1725    283.93031   -1845.1035    1812.5142 
  101000     300.6909    324.37355    278.60415   -1879.6397    1850.6602 
  102000    300.34938    318.81282    280.31854   -1916.7974    1882.5441 
  103000      301.241    319.99113    283.49261   -1955.2059    1914.2862 
  104000    300.94631    318.14706      279.712   -1988.5915    1945.4265 
  105000    300.86133    316.33674    281.06802   -2024.3464    1990.7691 
  106000    301.04698    319.31182    287.22897   -2067.1289    2022.6453 
  107000    300.52163    315.96259    281.03582   -2091.6019    2052.0634 
  108000    300.98395    318.00725    283.11751   -2138.2746     2096.242 
  109000    301.60527    316.10648    282.60887   -2171.9749    2126.8301 
  110000    300.30007    317.52968    278.93262   -2185.0698    2177.9085 
  111000    300.39166    318.21488     282.5058   -2221.9805    2203.1234 
  112000    300.21543    314.57665     279.9503   -2249.3517    2247.0132 
  113000    300.08965    314.30881    279.15595   -2281.8524    2281.8135 
  114000    299.55707    319.57968    280.10985   -2326.6348    2317.0467 
  115000    299.31954    314.63137    282.23386   -2349.6249    2365.5942 
  116000      299.448     315.7789    279.86984   -2398.8268     2398.325 
  117000     300.1401    318.70715    276.82075    -2428.428    2436.7521 
  118000    299.68498    317.81617    280.22034   -2459.6531    2459.2457 
  119000    299.84019    321.71098    278.35742   -2503.1706    2489.9313 
  120000    298.78881    319.60666    277.20434   -2522.3247    2525.9131 
  121000     299.5581    317.13488    282.83602   -2556.7072    2559.4467 
  122000    299.85212    317.45117    283.87629   -2600.4967     2602.012 
  123000    300.10899    315.88042    281.08444   -2640.5799    2640.8151 
  124000    300.30468    317.06155    282.60364   -2674.4111    2669.2183 
  125000    299.48223    314.13272    283.51493   -2696.2659    2704.7834 
  126000    299.71247     316.7121    281.63868   -2739.6503    2743.2613 
  127000    299.91339     316.8242     281.5316   -2769.1063    2784.2205 
  128000    299.76482    314.09222    281.37062   -2810.0222     2819.453 
  129000    299.08961     316.7149    284.85019   -2840.6816    2851.7522 
  130000    298.79833     316.1125    279.57581   -2870.1698    2895.6615 
  131000    299.64429    319.06141    280.13698   -2910.9637    2925.1362 
  132000    299.93294    322.26429     281.9803   -2945.1403    2956.7098 
  133000    298.89386    318.04686    282.05748    -2979.155    3002.2883 
  134000    299.93277    318.97692    281.99098   -3009.3874    3037.6763 
  135000     299.2996    319.32799    280.96664   -3049.1886    3060.3793 
  136000    299.17943    321.74377    278.87574   -3089.2346    3107.9304 
  137000    299.35778     315.8339    282.31793   -3122.0274    3126.7614 
  138000    300.01556     318.1549    280.60191   -3159.6658    3159.3751 
  139000    299.58653    318.71424    282.15724   -3199.2093    3198.2059 
  140000    299.47163     318.6919    280.78703   -3225.5045    3231.5397 
  141000    299.67056    317.67329    287.16905   -3267.7938    3257.8666 
  142000    299.54814     318.2319    282.40717   -3309.7507     3308.007 
  143000    300.97949    316.08455    285.23586   -3344.4464    3333.4202 
  144000    299.90594    321.17706    284.63566   -3384.4959    3359.7228 
  145000    300.71057    316.09845     280.2483   -3410.4304    3397.9141 
  145001    300.77394     316.6334    280.16111   -3411.2495     3398.117 
Loop time of 1722.03 on 32 procs for 100000 steps with 193600 atoms

Performance: 2.509 ns/day, 9.567 hours/ns, 58.071 timesteps/s
79.0% CPU use with 32 MPI tasks x no OpenMP threads

MPI task timing breakdown:
Section |  min time  |  avg time  |  max time  |%varavg| %total
---------------------------------------------------------------
Pair    | 1000       | 1018.9     | 1033.2     |  24.3 | 59.17
Neigh   | 0          | 0          | 0          |   0.0 |  0.00
Comm    | 269.61     | 378.37     | 470.37     | 331.4 | 21.97
Output  | 0.097896   | 0.10341    | 0.10654    |   0.7 |  0.01
Modify  | 199.53     | 294.86     | 398.42     | 371.3 | 17.12
Other   |            | 29.79      |            |       |  1.73

Nlocal:    6050 ave 6115 max 5998 min
Histogram: 2 2 5 5 6 4 3 3 1 1
Nghost:    5892.47 ave 5944 max 5828 min
Histogram: 1 1 3 3 4 6 5 5 2 2
Neighs:    0 ave 0 max 0 min
Histogram: 32 0 0 0 0 0 0 0 0 0
FullNghs:  207016 ave 209215 max 205110 min
Histogram: 2 2 3 6 7 2 5 3 1 1

Total # of neighbors = 6624498
Ave neighs/atom = 34.2174
Neighbor list builds = 0
Dangerous builds = 0

# thermal conductivity calculation
# reset langevin thermostats to zero energy accumulation
reset_timestep 0
thermo		$c
thermo		500000
compute		ke all ke/atom
variable	temp atom c_ke/1.5/8.617332478e-5
fix		hot all langevin ${thi} ${thi} ${tdamp} 389516 tally yes
fix		hot all langevin 319.9225 ${thi} ${tdamp} 389516 tally yes
fix		hot all langevin 319.9225 319.9225 ${tdamp} 389516 tally yes
fix		hot all langevin 319.9225 319.9225 0.05 389516 tally yes
fix_modify	hot temp Thot
fix		cold all langevin ${tlo} ${tlo} ${tdamp} 46579 tally yes
fix		cold all langevin 280.0775 ${tlo} ${tdamp} 46579 tally yes
fix		cold all langevin 280.0775 280.0775 ${tdamp} 46579 tally yes
fix		cold all langevin 280.0775 280.0775 0.05 46579 tally yes
fix_modify	cold temp Tcold

compute		ch all chunk/atom bin/1d x lower 0.02 units reduced
fix		11 all ave/chunk $a $b $c ch v_temp file sw_${P}.langevin
fix		11 all ave/chunk 100 $b $c ch v_temp file sw_${P}.langevin
fix		11 all ave/chunk 100 5000 $c ch v_temp file sw_${P}.langevin
fix		11 all ave/chunk 100 5000 500000 ch v_temp file sw_${P}.langevin
fix		11 all ave/chunk 100 5000 500000 ch v_temp file sw_14.langevin
thermo_style	custom step temp c_Thot c_Tcold f_hot f_cold

run		${t2nve}
run		500000
Per MPI rank memory allocation (min/avg/max) = 5.118 | 5.12 | 5.121 Mbytes
Step Temp c_Thot c_Tcold f_hot f_cold 
       0    300.77394    316.59555    280.27216           -0           -0 
  500000    300.36611    318.59869    282.49076    -17171.02     17178.29 
Loop time of 8557.88 on 32 procs for 500000 steps with 193600 atoms

Performance: 2.524 ns/day, 9.509 hours/ns, 58.426 timesteps/s
79.1% CPU use with 32 MPI tasks x no OpenMP threads

MPI task timing breakdown:
Section |  min time  |  avg time  |  max time  |%varavg| %total
---------------------------------------------------------------
Pair    | 5029.5     | 5090.3     | 5179.9     |  55.9 | 59.48
Neigh   | 0          | 0          | 0          |   0.0 |  0.00
Comm    | 1294.3     | 1871.1     | 2386.7     | 745.8 | 21.86
Output  | 0.000919   | 0.0021535  | 0.002307   |   0.5 |  0.00
Modify  | 945.02     | 1452.2     | 1930.1     | 824.6 | 16.97
Other   |            | 144.4      |            |       |  1.69

Nlocal:    6050 ave 6098 max 6003 min
Histogram: 4 1 1 1 10 4 6 1 2 2
Nghost:    5891.88 ave 5940 max 5844 min
Histogram: 2 2 1 5 6 9 1 1 1 4
Neighs:    0 ave 0 max 0 min
Histogram: 32 0 0 0 0 0 0 0 0 0
FullNghs:  207049 ave 208830 max 205304 min
Histogram: 3 2 1 2 8 8 3 0 3 2

Total # of neighbors = 6625578
Ave neighs/atom = 34.223
Neighbor list builds = 0
Dangerous builds = 0
clear
next		P
jump		Si.in
 units       metal
#----------------------------- User Input Variables --------------------------------------
################### Geometrical Parameters ###############################
variable	P index 13 14 15 16
variable	W equal 22
# Lattice Constant
variable	LC equal 5.43
# Length
variable	L equal 50
# Width
#variable	W equal 6
# Height
variable	H equal ${W}
variable	H equal 22
################### Simulation Condition ###############################
#DT/DX=cte
variable	cte equal 1.5938
log         sw_${P}.log
log         sw_15.log
