# temperature
variable	T equal 300
#cold region temperature
#variable        tlo equal 275
variable        tlo equal ${T}-${L}*${cte}/4.0
variable        tlo equal 300-${L}*${cte}/4.0
variable        tlo equal 300-50*${cte}/4.0
variable        tlo equal 300-50*1.5938/4.0
#hot region temperature
#variable        thi equal ${cte}*${L}/2+${tlo}
variable        thi equal ${T}+${L}*${cte}/4.0
variable        thi equal 300+${L}*${cte}/4.0
variable        thi equal 300+50*${cte}/4.0
variable        thi equal 300+50*1.5938/4.0

#time step (picoseconds)
variable	dt equal 0.0005 # 0.5 femtoseconds
#number of time steps for NPT
variable	tnpt equal 5000
#number of time steps for NVT
variable	tnvt equal 40000
#number of time steps for first NVE
variable	t1nve equal 100000
#number of time steps for second NVE
variable	t2nve equal 500000

################### Variable Based on LAMMPS Documentation ######################
variable	a equal 100
variable	c equal ${t2nve}
variable	c equal 500000
variable	b equal $c/$a
variable	b equal 500000/$a
variable	b equal 500000/100
variable	tdamp equal ${dt}*100
variable	tdamp equal 0.0005*100
variable	pdamp equal ${dt}*1000
variable	pdamp equal 0.0005*1000

#----------------------------------------------------------------------------------------
# setup problem
dimension       3
boundary        p p p
atom_style      atomic
lattice 	diamond ${LC} origin 0.0 0.0 0.0 orient x 1 0 0 orient y 0 1 0 orient z 0 0 1
lattice 	diamond 5.43 origin 0.0 0.0 0.0 orient x 1 0 0 orient y 0 1 0 orient z 0 0 1
Lattice spacing in x,y,z = 5.43 5.43 5.43
region          0 block 0 $L 0 $W 0 $H units lattice side in
region          0 block 0 50 0 $W 0 $H units lattice side in
region          0 block 0 50 0 22 0 $H units lattice side in
region          0 block 0 50 0 22 0 22 units lattice side in
create_box      1 0
Created orthogonal box = (0 0 0) to (271.5 119.46 119.46)
  8 by 2 by 2 MPI processor grid
create_atoms    1 region 0
Created 193600 atoms
mass		1 28.0855
#dump		1 all xyz 1000 Si_W_${W}nm.xyz
#dump_modify	1 element Si

############################################
pair_style   sw
pair_coeff   * * Si${P}.sw Si
pair_coeff   * * Si19.sw Si
thermo		100
thermo_style custom step lx
min_style cg
minimize 0.0 1.0e-8 10000 100000
WARNING: Using 'neigh_modify every 1 delay 0 check yes' setting during minimization (../min.cpp:168)
Neighbor list info ...
  update every 1 steps, delay 0 steps, check yes
  max neighbors/atom: 2000, page size: 100000
  master list distance cutoff = 5.545
  ghost atom cutoff = 5.545
  binsize = 2.7725, bins = 98 44 44
  1 neighbor lists, perpetual/occasional/extra = 1 0 0
  (1) pair sw, perpetual
      attributes: full, newton on
      pair build: full/bin/atomonly
      stencil: full/bin/3d
      bin: standard
Per MPI rank memory allocation (min/avg/max) = 5.246 | 5.246 | 5.246 Mbytes
Step Lx 
       0        271.5 
       1        271.5 
Loop time of 0.0419103 on 32 procs for 1 steps with 193600 atoms

75.7% CPU use with 32 MPI tasks x no OpenMP threads

Minimization stats:
  Stopping criterion = force tolerance
  Energy initial, next-to-last, final = 
        -674392.974557     -674392.974557     -674392.974557
  Force two-norm initial, final = 8.64613e-11 8.63996e-11
  Force max component initial, final = 5.03988e-13 5.05096e-13
  Final line search alpha, max atom move = 1 5.05096e-13
  Iterations, force evaluations = 1 2

MPI task timing breakdown:
Section |  min time  |  avg time  |  max time  |%varavg| %total
---------------------------------------------------------------
Pair    | 0.024483   | 0.024827   | 0.025923   |   0.2 | 59.24
Neigh   | 0          | 0          | 0          |   0.0 |  0.00
Comm    | 0.005566   | 0.0097506  | 0.013482   |   2.1 | 23.27
Output  | 0          | 0          | 0          |   0.0 |  0.00
Modify  | 0          | 0          | 0          |   0.0 |  0.00
Other   |            | 0.007332   |            |       | 17.50

Nlocal:    6050 ave 6050 max 6050 min
Histogram: 32 0 0 0 0 0 0 0 0 0
Nghost:    5892.5 ave 5893 max 5892 min
Histogram: 16 0 0 0 0 0 0 0 0 16
Neighs:    0 ave 0 max 0 min
Histogram: 32 0 0 0 0 0 0 0 0 0
FullNghs:  205700 ave 205700 max 205700 min
Histogram: 32 0 0 0 0 0 0 0 0 0

Total # of neighbors = 6582400
Ave neighs/atom = 34
Neighbor list builds = 0
Dangerous builds = 0
timestep     ${dt}
timestep     0.0005
velocity 	all create $T 492845
velocity 	all create 300 492845


fix 		NPT all npt temp $T $T ${tdamp} iso 0.0 0.0 ${pdamp}
fix 		NPT all npt temp 300 $T ${tdamp} iso 0.0 0.0 ${pdamp}
fix 		NPT all npt temp 300 300 ${tdamp} iso 0.0 0.0 ${pdamp}
fix 		NPT all npt temp 300 300 0.05 iso 0.0 0.0 ${pdamp}
fix 		NPT all npt temp 300 300 0.05 iso 0.0 0.0 0.5
thermo		100
thermo_style custom step lx press
run		${tnpt}
run		5000
Per MPI rank memory allocation (min/avg/max) = 4.121 | 4.121 | 4.121 Mbytes
Step Lx Press 
       1        271.5   -92204.753 
     100    267.14755   -45197.209 
     200    264.84089    -16168.73 
     300    263.82203    -3185.405 
     400    263.61611    66.638186 
     500    263.62708     204.4809 
     600    263.64101    29.858643 
     700    263.65843   -132.23002 
     800    263.66939    143.50767 
     900    263.67962    104.39164 
    1000     263.6958   -48.614206 
    1100    263.71131    11.320193 
    1200    263.71828    33.972389 
    1300    263.73051   -12.753687 
    1400    263.73534    64.649436 
    1500    263.74031    3.4024703 
    1600     263.7404   -75.358998 
    1700    263.73582   -2.1517662 
    1800    263.72878    58.339013 
    1900    263.73378   -42.915221 
    2000    263.73445   -22.833157 
    2100    263.73736     14.43286 
    2200    263.73776  -0.40226915 
    2300    263.73679   -5.1090585 
    2400    263.73406   -8.5015917 
    2500    263.73207    17.346011 
    2600    263.73326   -27.277285 
    2700    263.73212    34.927743 
    2800    263.74239    -36.58536 
    2900    263.73516   -1.9825292 
    3000    263.73459    35.433769 
    3100    263.73387   -22.698949 
    3200    263.72955    36.021164 
    3300    263.73991    -83.93864 
    3400    263.73061    108.24979 
    3500    263.74217   -86.349602 
    3600    263.73292    53.528223 
    3700    263.73402    -37.65753 
    3800    263.73661     4.036194 
    3900    263.72716    51.181574 
    4000    263.74281   -85.352658 
    4100    263.73304    55.181324 
    4200    263.73598   -6.5767483 
    4300    263.73817   -37.807402 
    4400    263.72889    58.809045 
    4500    263.73774   -45.044534 
    4600    263.73036    36.966685 
    4700    263.74145   -51.437549 
    4800    263.73135    56.592467 
    4900    263.73951   -60.779348 
    5000    263.73324    12.569284 
    5001    263.73342    9.8009448 
Loop time of 78.2422 on 32 procs for 5000 steps with 193600 atoms

Performance: 2.761 ns/day, 8.694 hours/ns, 63.904 timesteps/s
74.8% CPU use with 32 MPI tasks x no OpenMP threads

MPI task timing breakdown:
Section |  min time  |  avg time  |  max time  |%varavg| %total
---------------------------------------------------------------
Pair    | 42.791     | 43.775     | 49.683     |  18.1 | 55.95
Neigh   | 0.096549   | 0.10204    | 0.10542    |   0.6 |  0.13
Comm    | 11.437     | 19.954     | 24.822     |  76.0 | 25.50
Output  | 0.028352   | 0.033379   | 0.036531   |   1.4 |  0.04
Modify  | 8.5964     | 13.131     | 18.688     |  82.5 | 16.78
Other   |            | 1.247      |            |       |  1.59

Nlocal:    6050 ave 6091 max 6005 min
Histogram: 1 3 5 2 2 7 3 3 4 2
Nghost:    5892.5 ave 5937 max 5851 min
Histogram: 2 3 3 4 6 3 2 5 3 1
Neighs:    0 ave 0 max 0 min
Histogram: 32 0 0 0 0 0 0 0 0 0
FullNghs:  205721 ave 207108 max 204186 min
Histogram: 1 3 5 2 3 6 3 3 4 2

Total # of neighbors = 6583060
Ave neighs/atom = 34.0034
Neighbor list builds = 9
Dangerous builds = 0
unfix		NPT
variable	length equal lx/${LC}
variable	length equal lx/5.43

################### Geometrical Parameters After Relaxation ###############################
# Thermostat_width
variable	TW equal ${length}/40
variable	TW equal 48.5696911988167/40
# Hot_Start
variable	hs equal ${length}/4-${TW}
variable	hs equal 48.5696911988167/4-${TW}
variable	hs equal 48.5696911988167/4-1.21424227997042
# Hot_End
variable	he equal ${length}/4+${TW}
variable	he equal 48.5696911988167/4+${TW}
variable	he equal 48.5696911988167/4+1.21424227997042
# Cold_Start
variable	cs equal 3*${length}/4-${TW}
variable	cs equal 3*48.5696911988167/4-${TW}
variable	cs equal 3*48.5696911988167/4-1.21424227997042
# Cold_End
variable	ce equal 3*${length}/4+${TW}
variable	ce equal 3*48.5696911988167/4+${TW}
variable	ce equal 3*48.5696911988167/4+1.21424227997042
###########################################################################################

################### Defining Thermostat ###################################################
region 		hot block ${hs} ${he} EDGE EDGE EDGE EDGE
region 		hot block 10.9281805197338 ${he} EDGE EDGE EDGE EDGE
region 		hot block 10.9281805197338 13.3566650796746 EDGE EDGE EDGE EDGE
region 		cold block ${cs} ${ce} EDGE EDGE EDGE EDGE
region 		cold block 35.2130261191421 ${ce} EDGE EDGE EDGE EDGE
region 		cold block 35.2130261191421 37.6415106790829 EDGE EDGE EDGE EDGE
group		test region cold
9560 atoms in group test
group		test1 region hot
9599 atoms in group test1
compute		Thot all temp/region hot
compute         Tcold all temp/region cold
###########################################################################################

fix		NVT all nvt temp $T $T ${tdamp}
fix		NVT all nvt temp 300 $T ${tdamp}
fix		NVT all nvt temp 300 300 ${tdamp}
fix		NVT all nvt temp 300 300 0.05
thermo		1000
thermo_style	custom step temp
run		${tnvt}
run		40000
Per MPI rank memory allocation (min/avg/max) = 4.125 | 4.125 | 4.125 Mbytes
Step Temp 
    5001    297.98978 
    6000     300.0322 
    7000    298.66798 
    8000    300.20284 
    9000    301.25715 
   10000    302.29113 
   11000    299.64226 
   12000     299.6962 
   13000    298.86287 
   14000    300.22852 
   15000    299.97125 
   16000    298.69171 
   17000    299.58993 
   18000    300.66445 
   19000    299.43994 
   20000    300.94229 
   21000    299.81698 
   22000    300.39058 
   23000    300.68511 
   24000    299.24687 
   25000    299.79506 
   26000    299.55995 
   27000    299.31439 
   28000    298.28069 
   29000    300.60908 
   30000    298.36574 
   31000    299.87604 
   32000    299.66481 
   33000    299.96255 
   34000     299.4596 
   35000    299.53758 
   36000    299.81877 
   37000     300.0904 
   38000    299.00472 
   39000    299.23152 
   40000    299.68438 
   41000    299.79115 
   42000    299.36181 
   43000    301.07357 
   44000    300.01356 
   45000    299.62532 
   45001    299.55719 
Loop time of 564.431 on 32 procs for 40000 steps with 193600 atoms

Performance: 3.061 ns/day, 7.839 hours/ns, 70.868 timesteps/s
76.9% CPU use with 32 MPI tasks x no OpenMP threads

MPI task timing breakdown:
Section |  min time  |  avg time  |  max time  |%varavg| %total
---------------------------------------------------------------
Pair    | 337.28     | 342.58     | 349.74     |  15.3 | 60.69
Neigh   | 0          | 0          | 0          |   0.0 |  0.00
Comm    | 96.111     | 141.5      | 184.81     | 220.8 | 25.07
Output  | 0.022649   | 0.025551   | 0.029741   |   1.4 |  0.00
Modify  | 26.455     | 66.52      | 105.97     | 314.8 | 11.79
Other   |            | 13.8       |            |       |  2.45

Nlocal:    6050 ave 6109 max 6001 min
Histogram: 1 5 4 2 6 5 5 2 1 1
Nghost:    5892.5 ave 5941 max 5834 min
Histogram: 1 1 2 5 5 6 2 4 5 1
Neighs:    0 ave 0 max 0 min
Histogram: 32 0 0 0 0 0 0 0 0 0
FullNghs:  206008 ave 208056 max 204347 min
Histogram: 1 5 4 3 5 5 5 2 1 1

Total # of neighbors = 6592270
Ave neighs/atom = 34.051
Neighbor list builds = 0
Dangerous builds = 0
velocity	all scale $T
velocity	all scale 300
unfix		NVT

fix		NVE all nve
fix		hot all langevin ${thi} ${thi} ${tdamp} 389516 tally yes
fix		hot all langevin 319.9225 ${thi} ${tdamp} 389516 tally yes
fix		hot all langevin 319.9225 319.9225 ${tdamp} 389516 tally yes
fix		hot all langevin 319.9225 319.9225 0.05 389516 tally yes
fix_modify	hot temp Thot
fix		cold all langevin ${tlo} ${tlo} ${tdamp} 46579 tally yes
fix		cold all langevin 280.0775 ${tlo} ${tdamp} 46579 tally yes
fix		cold all langevin 280.0775 280.0775 ${tdamp} 46579 tally yes
fix		cold all langevin 280.0775 280.0775 0.05 46579 tally yes
fix_modify	cold temp Tcold

thermo_style	custom step temp c_Thot c_Tcold f_hot f_cold
run		${t1nve}
run		100000
Per MPI rank memory allocation (min/avg/max) = 4.875 | 4.875 | 4.875 Mbytes
Step Temp c_Thot c_Tcold f_hot f_cold 
   45001          300    305.39093    298.52486           -0           -0 
   46000    299.82716    316.29028    281.19472   -57.876501    78.806647 
   47000    299.83598    317.36861    281.39286   -76.405814    99.807157 
   48000    300.30704    318.38342    280.88831   -101.95433    129.15564 
   49000    299.67463    321.06345    281.54261   -133.12706    145.77536 
   50000    300.07428    317.80043    274.95408   -147.12032    175.02278 
   51000    300.72652    318.29061    281.43124   -175.73782    183.22127 
   52000    300.27095    317.29055    281.53768   -193.27357    207.57407 
   53000      299.567    319.76418     280.8486   -216.06634     237.5521 
   54000    300.44075    318.60514    282.16934   -249.23788    260.67158 
   55000    300.27315    320.18319    279.34565   -286.54786    296.30527 
   56000    299.93002    318.36894    277.31419   -316.10547    324.41124 
   57000    300.91304    321.88937    279.38417   -363.00755    361.61367 
   58000    300.22781    316.60999    278.75868   -380.13035    386.29098 
   59000    299.32675     319.4269    276.89371   -411.74694    424.50983 
   60000    300.40769     314.7963    280.82659   -449.69489    446.24873 
   61000    300.70848    318.16433    280.91111   -484.01123    473.29522 
   62000    300.35971    318.53083     281.6855   -522.61382    514.61975 
   63000    300.55937    315.43953    278.79453   -554.93983    566.84863 
   64000    300.07851    319.47538    281.06699   -603.04457     600.2908 
   65000      299.741    315.35259    281.64962   -627.30762    635.13611 
   66000    301.21466    319.18717    282.02631   -678.33101    681.01526 
   67000    300.16388    313.50098    285.19992   -700.52411    712.48179 
   68000    300.14823    318.28659    281.37298   -748.35941    753.17905 
   69000     300.2179    316.13622    282.89945   -784.94892    792.56755 
   70000    299.34736    315.13907    277.39919   -817.73849    835.18296 
   71000    299.69311    319.49001    284.88831   -863.72361    865.71172 
   72000    299.74154    319.44352    280.97184   -905.86078    905.90411 
   73000    299.44787    313.40548    277.40428   -935.81969    950.37817 
   74000    299.73813    317.36492    278.99005   -972.24398    992.25235 
   75000    300.37894    316.50991    283.02014    -1010.149    1020.0378 
   76000     299.9738    319.64527    278.07787   -1046.0939    1074.4762 
   77000    300.58701    319.80341    280.25992   -1087.5759    1101.2488 
   78000    299.64964    318.03398    278.15593   -1125.4527     1152.092 
   79000    299.54324    313.81177    279.83818   -1150.2079    1182.4867 
   80000    300.06802    316.48246    282.68315   -1195.2589    1215.0296 
   81000    299.95075    321.75883    281.94849   -1253.8539    1254.4167 
   82000     299.8284    319.42041    280.70598   -1279.7925    1290.0714 
   83000    299.35524    317.66489    281.65898   -1311.9582    1329.3815 
   84000    299.47259    317.49502    279.82347   -1349.0897    1370.2051 
   85000    300.19575    313.30096     283.6271   -1376.6393    1404.6144 
   86000    300.42007    318.40552    279.90548   -1428.9687    1433.8651 
   87000    300.44457    315.13047    284.79267   -1453.4144    1475.2894 
   88000    299.92389    323.04188    280.81953   -1500.3548    1517.6003 
   89000    300.07304    316.87451     281.0753   -1527.0507    1550.3172 
   90000    299.22927    319.06358    282.72329    -1566.661    1584.3231 
   91000    299.81702     317.0338    284.54179   -1605.4812    1617.7552 
   92000      300.248    319.66313    282.54772   -1650.4355    1658.7184 
   93000    299.45879    316.39809    277.82856   -1684.6127    1701.5947 
   94000    300.32862    316.79791    280.38928   -1722.7921    1732.0715 
   95000    299.84786    323.40793    284.42841   -1768.3956    1760.7273 
   96000    300.36797    319.41596    285.33948   -1792.7437    1794.3879 
   97000    300.45908    319.49337    283.74686    -1826.741    1840.3112 
   98000    299.86575    315.37133     284.5697   -1851.8035    1870.5916 
   99000    299.63188    320.01499    281.02149   -1899.0819    1911.3294 
  100000    299.63674    317.65337     281.2138   -1923.6337    1953.0255 
  101000    299.66041    316.68821    281.51152   -1946.0599    1992.0205 
  102000     300.2738    317.34101    283.84145   -2000.5269    2015.4009 
  103000    299.45599    319.29152    281.44197   -2030.9242    2057.0738 
  104000    299.48114    316.71118     281.9028   -2064.4467    2101.2044 
  105000    299.80912    320.26206    280.36902   -2102.8012     2134.875 
  106000    299.78277    318.84983    278.86391   -2140.4985    2175.9538 
  107000    299.82858    323.45792     285.8113   -2188.2285    2206.1779 
  108000    300.36862    323.33614    281.40331   -2225.2806    2252.0623 
  109000    300.43358    319.95148    283.07796   -2262.3883    2281.7859 
  110000    300.00334    318.95338    281.31023   -2292.4313    2322.7862 
  111000    300.08604    321.17905    280.57962   -2343.8463     2364.377 
  112000    300.06169    318.38322    279.91246   -2364.8944    2401.8694 
  113000    300.39061    318.20535    286.79557   -2404.0962    2428.3348 
  114000    299.64171    317.49325    283.97606   -2442.7157    2462.2918 
  115000     300.6581    321.54103    280.66062   -2487.3679    2501.6483 
  116000    300.47326    315.41457    286.24116   -2520.7299    2530.7605 
  117000    299.55981    315.90264    282.69464   -2560.1079    2574.3104 
  118000    299.78107    318.16468    281.08445    -2593.552    2595.7131 
  119000     299.9416    321.45185    279.56792   -2633.1146    2630.1569 
  120000    299.87279    313.53971     282.5805   -2651.5076    2660.8785 
  121000    300.60053    316.41039    284.74233   -2697.0623    2701.5915 
  122000    300.28821    313.70471    286.34886   -2722.6002    2737.9353 
  123000    299.76031    318.69244      287.122   -2768.3822    2774.8355 
  124000    299.79648    321.39258    281.32915    -2813.734    2816.1846 
  125000    300.77286    323.42091     280.1884    -2859.359    2860.1599 
  126000    300.08427    319.01213    279.07784   -2882.7834    2898.8564 
  127000    300.23476    316.78844    281.72232   -2919.3028    2932.8219 
  128000     299.1353    315.71103    278.43236    -2944.501    2971.3776 
  129000    299.85144    317.71738    278.84476   -2988.1048    3004.0138 
  130000    299.61735    316.45398    277.40183   -3012.3287    3049.2008 
  131000    299.47845    316.49991    283.06773   -3052.4646    3063.2075 
  132000    299.45831    317.69174    281.92843    -3096.466    3106.4943 
  133000    300.72623    321.64884    281.80882   -3129.1099    3149.4157 
  134000    300.17849    320.76283     281.4273   -3174.0347    3196.2223 
  135000    299.00999    316.12417    281.75542    -3203.213    3220.7828 
  136000    299.83862    318.10582     284.2773   -3249.1798    3254.0944 
  137000    299.79837    318.83524    281.23677   -3276.5958    3290.6407 
  138000    300.49277    321.07317     279.9439   -3321.2421    3328.5977 
  139000     299.5141    321.11664    281.06466   -3344.5327    3362.5252 
  140000    300.25323    317.48262    279.42721   -3383.1722    3389.8532 
  141000    300.26923    318.78998    284.55035    -3417.365    3413.5878 
  142000    300.20285    318.82914    282.63517   -3446.8213    3446.5721 
  143000    299.43474    314.49257    279.86646   -3481.3432    3487.5879 
  144000    300.21741    318.52343    282.99027   -3525.0227    3523.2981 
  145000     299.8505     319.3152    283.14341    -3562.822    3562.6885 
  145001    299.92992    319.33605    283.15292   -3563.1419     3562.343 
Loop time of 1557.13 on 32 procs for 100000 steps with 193600 atoms

Performance: 2.774 ns/day, 8.651 hours/ns, 64.221 timesteps/s
77.2% CPU use with 32 MPI tasks x no OpenMP threads

MPI task timing breakdown:
Section |  min time  |  avg time  |  max time  |%varavg| %total
---------------------------------------------------------------
Pair    | 847.22     | 859.16     | 882.15     |  28.5 | 55.18
Neigh   | 0          | 0          | 0          |   0.0 |  0.00
Comm    | 238.24     | 365.58     | 471.68     | 353.6 | 23.48
Output  | 0.10068    | 0.10757    | 0.11202    |   1.1 |  0.01
Modify  | 200.34     | 297.47     | 407.1      | 371.8 | 19.10
Other   |            | 34.81      |            |       |  2.24

Nlocal:    6050 ave 6100 max 5968 min
Histogram: 1 1 0 4 2 5 7 5 3 4
Nghost:    5892.5 ave 5975 max 5842 min
Histogram: 4 2 6 7 5 2 4 0 1 1
Neighs:    0 ave 0 max 0 min
Histogram: 32 0 0 0 0 0 0 0 0 0
FullNghs:  206036 ave 207763 max 203217 min
Histogram: 1 1 0 4 2 5 7 5 3 4

Total # of neighbors = 6593162
Ave neighs/atom = 34.0556
Neighbor list builds = 0
Dangerous builds = 0

# thermal conductivity calculation
# reset langevin thermostats to zero energy accumulation
reset_timestep 0
thermo		$c
thermo		500000
compute		ke all ke/atom
variable	temp atom c_ke/1.5/8.617332478e-5
fix		hot all langevin ${thi} ${thi} ${tdamp} 389516 tally yes
fix		hot all langevin 319.9225 ${thi} ${tdamp} 389516 tally yes
fix		hot all langevin 319.9225 319.9225 ${tdamp} 389516 tally yes
fix		hot all langevin 319.9225 319.9225 0.05 389516 tally yes
fix_modify	hot temp Thot
fix		cold all langevin ${tlo} ${tlo} ${tdamp} 46579 tally yes
fix		cold all langevin 280.0775 ${tlo} ${tdamp} 46579 tally yes
fix		cold all langevin 280.0775 280.0775 ${tdamp} 46579 tally yes
fix		cold all langevin 280.0775 280.0775 0.05 46579 tally yes
fix_modify	cold temp Tcold

compute		ch all chunk/atom bin/1d x lower 0.02 units reduced
fix		11 all ave/chunk $a $b $c ch v_temp file sw_${P}.langevin
fix		11 all ave/chunk 100 $b $c ch v_temp file sw_${P}.langevin
fix		11 all ave/chunk 100 5000 $c ch v_temp file sw_${P}.langevin
fix		11 all ave/chunk 100 5000 500000 ch v_temp file sw_${P}.langevin
fix		11 all ave/chunk 100 5000 500000 ch v_temp file sw_19.langevin
thermo_style	custom step temp c_Thot c_Tcold f_hot f_cold

run		${t2nve}
run		500000
Per MPI rank memory allocation (min/avg/max) = 5.125 | 5.125 | 5.125 Mbytes
Step Temp c_Thot c_Tcold f_hot f_cold 
       0    299.92992    319.18562    283.21041           -0           -0 
  500000    300.16418    318.84255    277.05368   -17900.178    17908.825 
Loop time of 7792.47 on 32 procs for 500000 steps with 193600 atoms

Performance: 2.772 ns/day, 8.658 hours/ns, 64.164 timesteps/s
77.0% CPU use with 32 MPI tasks x no OpenMP threads

MPI task timing breakdown:
Section |  min time  |  avg time  |  max time  |%varavg| %total
---------------------------------------------------------------
Pair    | 4251.7     | 4297.9     | 4375.7     |  44.4 | 55.15
Neigh   | 0          | 0          | 0          |   0.0 |  0.00
Comm    | 1289.7     | 1839.5     | 2331.5     | 764.4 | 23.61
Output  | 0.000946   | 0.0018439  | 0.001991   |   0.4 |  0.00
Modify  | 1006.1     | 1489.6     | 2001.4     | 832.6 | 19.12
Other   |            | 165.4      |            |       |  2.12

Nlocal:    6050 ave 6088 max 6020 min
Histogram: 4 3 1 9 2 5 1 3 1 3
Nghost:    5892.34 ave 5922 max 5855 min
Histogram: 3 1 3 1 5 2 9 1 3 4
Neighs:    0 ave 0 max 0 min
Histogram: 32 0 0 0 0 0 0 0 0 0
FullNghs:  206046 ave 207336 max 205040 min
Histogram: 5 3 0 8 3 5 1 3 1 3

Total # of neighbors = 6593476
Ave neighs/atom = 34.0572
Neighbor list builds = 0
Dangerous builds = 0
clear
next		P
jump		Si.in
 units       metal
#----------------------------- User Input Variables --------------------------------------
################### Geometrical Parameters ###############################
variable	P index 17 18 19 20
variable	W equal 22
# Lattice Constant
variable	LC equal 5.43
# Length
variable	L equal 50
# Width
#variable	W equal 6
# Height
variable	H equal ${W}
variable	H equal 22
################### Simulation Condition ###############################
#DT/DX=cte
variable	cte equal 1.5938
log         sw_${P}.log
log         sw_20.log
