# temperature
variable	T equal 300
#cold region temperature
#variable        tlo equal 275
variable        tlo equal ${T}-${L}*${cte}/4.0
variable        tlo equal 300-${L}*${cte}/4.0
variable        tlo equal 300-50*${cte}/4.0
variable        tlo equal 300-50*1.5938/4.0
#hot region temperature
#variable        thi equal ${cte}*${L}/2+${tlo}
variable        thi equal ${T}+${L}*${cte}/4.0
variable        thi equal 300+${L}*${cte}/4.0
variable        thi equal 300+50*${cte}/4.0
variable        thi equal 300+50*1.5938/4.0

#time step (picoseconds)
variable	dt equal 0.0005 # 0.5 femtoseconds
#number of time steps for NPT
variable	tnpt equal 5000
#number of time steps for NVT
variable	tnvt equal 40000
#number of time steps for first NVE
variable	t1nve equal 100000
#number of time steps for second NVE
variable	t2nve equal 500000

################### Variable Based on LAMMPS Documentation ######################
variable	a equal 100
variable	c equal ${t2nve}
variable	c equal 500000
variable	b equal $c/$a
variable	b equal 500000/$a
variable	b equal 500000/100
variable	tdamp equal ${dt}*100
variable	tdamp equal 0.0005*100
variable	pdamp equal ${dt}*1000
variable	pdamp equal 0.0005*1000

#----------------------------------------------------------------------------------------
# setup problem
dimension       3
boundary        p p p
atom_style      atomic
lattice 	diamond ${LC} origin 0.0 0.0 0.0 orient x 1 0 0 orient y 0 1 0 orient z 0 0 1
lattice 	diamond 5.43 origin 0.0 0.0 0.0 orient x 1 0 0 orient y 0 1 0 orient z 0 0 1
Lattice spacing in x,y,z = 5.43 5.43 5.43
region          0 block 0 $L 0 $W 0 $H units lattice side in
region          0 block 0 50 0 $W 0 $H units lattice side in
region          0 block 0 50 0 22 0 $H units lattice side in
region          0 block 0 50 0 22 0 22 units lattice side in
create_box      1 0
Created orthogonal box = (0 0 0) to (271.5 119.46 119.46)
  8 by 2 by 2 MPI processor grid
create_atoms    1 region 0
Created 193600 atoms
mass		1 28.0855
#dump		1 all xyz 1000 Si_W_${W}nm.xyz
#dump_modify	1 element Si

############################################
pair_style   sw
pair_coeff   * * Si${P}.sw Si
pair_coeff   * * Si28.sw Si
thermo		100
thermo_style custom step lx
min_style cg
minimize 0.0 1.0e-8 10000 100000
WARNING: Using 'neigh_modify every 1 delay 0 check yes' setting during minimization (../min.cpp:168)
Neighbor list info ...
  update every 1 steps, delay 0 steps, check yes
  max neighbors/atom: 2000, page size: 100000
  master list distance cutoff = 6.13503
  ghost atom cutoff = 6.13503
  binsize = 3.06751, bins = 89 39 39
  1 neighbor lists, perpetual/occasional/extra = 1 0 0
  (1) pair sw, perpetual
      attributes: full, newton on
      pair build: full/bin/atomonly
      stencil: full/bin/3d
      bin: standard
Per MPI rank memory allocation (min/avg/max) = 5.23 | 5.23 | 5.23 Mbytes
Step Lx 
       0        271.5 
       1        271.5 
Loop time of 0.306867 on 32 procs for 1 steps with 193600 atoms

95.8% CPU use with 32 MPI tasks x no OpenMP threads

Minimization stats:
  Stopping criterion = force tolerance
  Energy initial, next-to-last, final = 
         -1076626.4299      -1076626.4299      -1076626.4299
  Force two-norm initial, final = 1.0435e-10 1.04316e-10
  Force max component initial, final = 5.86808e-13 5.92609e-13
  Final line search alpha, max atom move = 1 5.92609e-13
  Iterations, force evaluations = 1 2

MPI task timing breakdown:
Section |  min time  |  avg time  |  max time  |%varavg| %total
---------------------------------------------------------------
Pair    | 0.28572    | 0.28753    | 0.29071    |   0.2 | 93.70
Neigh   | 0          | 0          | 0          |   0.0 |  0.00
Comm    | 0.007903   | 0.011366   | 0.015641   |   2.1 |  3.70
Output  | 0          | 0          | 0          |   0.0 |  0.00
Modify  | 0          | 0          | 0          |   0.0 |  0.00
Other   |            | 0.007969   |            |       |  2.60

Nlocal:    6050 ave 6050 max 6050 min
Histogram: 32 0 0 0 0 0 0 0 0 0
Nghost:    5892.5 ave 5893 max 5892 min
Histogram: 16 0 0 0 0 0 0 0 0 16
Neighs:    0 ave 0 max 0 min
Histogram: 32 0 0 0 0 0 0 0 0 0
FullNghs:  278300 ave 278300 max 278300 min
Histogram: 32 0 0 0 0 0 0 0 0 0

Total # of neighbors = 8905600
Ave neighs/atom = 46
Neighbor list builds = 0
Dangerous builds = 0
timestep     ${dt}
timestep     0.0005
velocity 	all create $T 492845
velocity 	all create 300 492845


fix 		NPT all npt temp $T $T ${tdamp} iso 0.0 0.0 ${pdamp}
fix 		NPT all npt temp 300 $T ${tdamp} iso 0.0 0.0 ${pdamp}
fix 		NPT all npt temp 300 300 ${tdamp} iso 0.0 0.0 ${pdamp}
fix 		NPT all npt temp 300 300 0.05 iso 0.0 0.0 ${pdamp}
fix 		NPT all npt temp 300 300 0.05 iso 0.0 0.0 0.5
thermo		100
thermo_style custom step lx press
run		${tnpt}
run		5000
Per MPI rank memory allocation (min/avg/max) = 4.105 | 4.105 | 4.105 Mbytes
Step Lx Press 
       1        271.5    72869.089 
     100    275.97842    49949.977 
     200    279.14481    31589.209 
     300     281.4015    16415.866 
     400    282.82303    6392.3705 
     500    283.48973    1357.2569 
     600    283.67127    38.888553 
     700     283.6599    10.488689 
     800    283.65521   -35.291647 
     900    283.64028    3.7405188 
    1000    283.63699   -31.064134 
    1100    283.62695    19.011668 
    1200    283.61797   -16.397029 
    1300    283.61283   -27.425978 
    1400    283.60575   -39.276335 
    1500    283.60228    2.7208542 
    1600    283.59767    3.2740152 
    1700    283.60249   -7.8656614 
    1800    283.60674     -37.7246 
    1900    283.60996   -9.9940549 
    2000    283.60294    53.259913 
    2100    283.60741    15.163134 
    2200    283.59711    88.755805 
    2300    283.60365    18.913553 
    2400    283.60849    32.225607 
    2500    283.61069   -50.160105 
    2600    283.59636    121.20774 
    2700    283.62124   -151.67031 
    2800    283.60017    111.93689 
    2900    283.60007    2.8645037 
    3000    283.62143   -76.605933 
    3100    283.58932    175.87101 
    3200    283.62133   -110.25516 
    3300    283.60914    32.899663 
    3400    283.60713   -9.0228484 
    3500     283.6093   0.63546441 
    3600    283.60574   -16.071881 
    3700    283.61827   -90.946498 
    3800     283.6025    73.440934 
    3900    283.61543   -35.783907 
    4000    283.60975    40.492053 
    4100    283.60507    21.708954 
    4200     283.6163   -42.160207 
    4300     283.6022     57.41505 
    4400    283.61566    -7.112417 
    4500    283.60441    69.933287 
    4600    283.62079   -73.486924 
    4700    283.60737     55.03682 
    4800    283.60956    1.9998122 
    4900    283.61528   -55.569756 
    5000    283.60458     29.43635 
    5001    283.60456    30.161836 
Loop time of 508.154 on 32 procs for 5000 steps with 193600 atoms

Performance: 0.425 ns/day, 56.462 hours/ns, 9.840 timesteps/s
92.4% CPU use with 32 MPI tasks x no OpenMP threads

MPI task timing breakdown:
Section |  min time  |  avg time  |  max time  |%varavg| %total
---------------------------------------------------------------
Pair    | 441.82     | 447.36     | 456.14     |  15.5 | 88.04
Neigh   | 0.22702    | 0.23105    | 0.23982    |   0.6 |  0.05
Comm    | 19.835     | 35.948     | 46.602     |  96.3 |  7.07
Output  | 0.029569   | 0.033686   | 0.036481   |   1.2 |  0.01
Modify  | 14.798     | 23.519     | 36.165     | 125.8 |  4.63
Other   |            | 1.066      |            |       |  0.21

Nlocal:    6050 ave 6107 max 6001 min
Histogram: 3 2 4 3 7 4 3 2 2 2
Nghost:    5892.5 ave 5941 max 5836 min
Histogram: 2 2 2 2 4 6 5 4 2 3
Neighs:    0 ave 0 max 0 min
Histogram: 32 0 0 0 0 0 0 0 0 0
FullNghs:  223869 ave 226552 max 221450 min
Histogram: 1 6 2 1 8 5 3 2 2 2

Total # of neighbors = 7163820
Ave neighs/atom = 37.0032
Neighbor list builds = 15
Dangerous builds = 0
unfix		NPT
variable	length equal lx/${LC}
variable	length equal lx/5.43

################### Geometrical Parameters After Relaxation ###############################
# Thermostat_width
variable	TW equal ${length}/40
variable	TW equal 52.229201268713/40
# Hot_Start
variable	hs equal ${length}/4-${TW}
variable	hs equal 52.229201268713/4-${TW}
variable	hs equal 52.229201268713/4-1.30573003171782
# Hot_End
variable	he equal ${length}/4+${TW}
variable	he equal 52.229201268713/4+${TW}
variable	he equal 52.229201268713/4+1.30573003171782
# Cold_Start
variable	cs equal 3*${length}/4-${TW}
variable	cs equal 3*52.229201268713/4-${TW}
variable	cs equal 3*52.229201268713/4-1.30573003171782
# Cold_End
variable	ce equal 3*${length}/4+${TW}
variable	ce equal 3*52.229201268713/4+${TW}
variable	ce equal 3*52.229201268713/4+1.30573003171782
###########################################################################################

################### Defining Thermostat ###################################################
region 		hot block ${hs} ${he} EDGE EDGE EDGE EDGE
region 		hot block 11.7515702854604 ${he} EDGE EDGE EDGE EDGE
region 		hot block 11.7515702854604 14.3630303488961 EDGE EDGE EDGE EDGE
region 		cold block ${cs} ${ce} EDGE EDGE EDGE EDGE
region 		cold block 37.8661709198169 ${ce} EDGE EDGE EDGE EDGE
region 		cold block 37.8661709198169 40.4776309832526 EDGE EDGE EDGE EDGE
group		test region cold
9587 atoms in group test
group		test1 region hot
9567 atoms in group test1
compute		Thot all temp/region hot
compute         Tcold all temp/region cold
###########################################################################################

fix		NVT all nvt temp $T $T ${tdamp}
fix		NVT all nvt temp 300 $T ${tdamp}
fix		NVT all nvt temp 300 300 ${tdamp}
fix		NVT all nvt temp 300 300 0.05
thermo		1000
thermo_style	custom step temp
run		${tnvt}
run		40000
Per MPI rank memory allocation (min/avg/max) = 4.114 | 4.115 | 4.117 Mbytes
Step Temp 
    5001    300.82997 
    6000    298.47295 
    7000     299.7271 
    8000    301.01725 
    9000    298.50509 
   10000    298.74965 
   11000    300.87447 
   12000    300.46217 
   13000    300.54179 
   14000    299.21515 
   15000    299.66243 
   16000    300.21612 
   17000    300.48191 
   18000    300.55135 
   19000    300.03549 
   20000    299.25137 
   21000     299.3719 
   22000    299.53014 
   23000    301.79581 
   24000    299.25202 
   25000    300.00897 
   26000    299.60313 
   27000      300.749 
   28000    299.43577 
   29000    299.99264 
   30000    299.80633 
   31000    300.22201 
   32000    300.74766 
   33000      299.703 
   34000    300.05772 
   35000    300.40314 
   36000    299.86572 
   37000    300.27693 
   38000    299.63837 
   39000    300.52054 
   40000    299.18443 
   41000    299.88694 
   42000    300.37436 
   43000    300.14037 
   44000    299.31957 
   45000    298.82354 
   45001    298.82831 
Loop time of 4004.31 on 32 procs for 40000 steps with 193600 atoms

Performance: 0.432 ns/day, 55.615 hours/ns, 9.989 timesteps/s
92.5% CPU use with 32 MPI tasks x no OpenMP threads

MPI task timing breakdown:
Section |  min time  |  avg time  |  max time  |%varavg| %total
---------------------------------------------------------------
Pair    | 3498.7     | 3542.5     | 3587.8     |  31.2 | 88.47
Neigh   | 0          | 0          | 0          |   0.0 |  0.00
Comm    | 189.28     | 286.49     | 368.61     | 328.1 |  7.15
Output  | 0.022722   | 0.025377   | 0.028099   |   0.9 |  0.00
Modify  | 98.16      | 160.74     | 237.94     | 358.9 |  4.01
Other   |            | 14.54      |            |       |  0.36

Nlocal:    6050 ave 6107 max 5982 min
Histogram: 1 1 2 5 3 9 4 2 2 3
Nghost:    5892.5 ave 5961 max 5835 min
Histogram: 3 2 2 3 10 3 6 1 1 1
Neighs:    0 ave 0 max 0 min
Histogram: 32 0 0 0 0 0 0 0 0 0
FullNghs:  225772 ave 228758 max 222504 min
Histogram: 1 1 3 4 3 12 2 3 1 2

Total # of neighbors = 7224706
Ave neighs/atom = 37.3177
Neighbor list builds = 0
Dangerous builds = 0
velocity	all scale $T
velocity	all scale 300
unfix		NVT

fix		NVE all nve
fix		hot all langevin ${thi} ${thi} ${tdamp} 389516 tally yes
fix		hot all langevin 319.9225 ${thi} ${tdamp} 389516 tally yes
fix		hot all langevin 319.9225 319.9225 ${tdamp} 389516 tally yes
fix		hot all langevin 319.9225 319.9225 0.05 389516 tally yes
fix_modify	hot temp Thot
fix		cold all langevin ${tlo} ${tlo} ${tdamp} 46579 tally yes
fix		cold all langevin 280.0775 ${tlo} ${tdamp} 46579 tally yes
fix		cold all langevin 280.0775 280.0775 ${tdamp} 46579 tally yes
fix		cold all langevin 280.0775 280.0775 0.05 46579 tally yes
fix_modify	cold temp Tcold

thermo_style	custom step temp c_Thot c_Tcold f_hot f_cold
run		${t1nve}
run		100000
Per MPI rank memory allocation (min/avg/max) = 4.864 | 4.865 | 4.867 Mbytes
Step Temp c_Thot c_Tcold f_hot f_cold 
   45001          300    303.02754    299.46214           -0           -0 
   46000    301.11083    320.05716    283.89397   -62.077552    83.102743 
   47000    299.77895     320.1997      279.961    -78.31084    105.73004 
   48000    299.54293    317.54801    281.99659   -104.40894    140.36528 
   49000    300.39228    317.13959    280.14582   -130.55227    157.21697 
   50000    300.23877    318.70978    282.23578   -162.26128    183.59466 
   51000    300.10475    322.55794    280.07223   -199.62077    215.49152 
   52000    300.44342    318.18697    281.94844   -224.07175    247.83752 
   53000    300.53216     317.8104    283.70138   -253.23309    279.51524 
   54000    300.39691    315.73483    284.47551   -288.75688    312.87047 
   55000    300.97394    322.22817    282.42869    -343.2878    354.88009 
   56000    299.96326    318.74124    279.03526   -373.88454    402.43302 
   57000    299.95644    320.07573    282.77528   -410.85743    446.95455 
   58000    299.77637    318.76365    281.89364   -446.31523    485.13006 
   59000    299.35534     316.4829    283.76279   -480.43817    530.93244 
   60000    300.04937    314.95484    281.71808   -522.57041    577.18237 
   61000    299.45904    321.03748     277.2597   -567.59818      619.156 
   62000    299.89727    316.17629     282.4129   -602.49219    654.10932 
   63000    299.61205     314.4563    284.55387   -647.36972    697.45149 
   64000     299.8016    320.13917    282.59661   -692.15889     727.9976 
   65000    299.03623     316.4008    277.92255   -713.30671    771.65039 
   66000    299.40721    315.78044    281.31453   -746.27829    815.32892 
   67000    300.08168    317.81471    284.22587   -803.32676    844.28286 
   68000    300.21794    320.23916    286.94792   -855.62376     894.3793 
   69000    300.11736    322.21864    277.44501   -890.31687    933.27226 
   70000    299.53039    319.85562    283.50367   -927.76351    969.90267 
   71000    300.17266    319.93713    277.98532   -972.15429    1006.1002 
   72000    300.68383    319.77686    282.44105   -1019.1331    1047.6316 
   73000    299.53646    321.92234      282.369   -1048.8774     1082.572 
   74000    299.73375    315.90835    280.30563   -1079.3531    1129.2965 
   75000    300.30044    317.81163    281.12542   -1128.6421     1163.556 
   76000    299.96056    318.50171    279.18674   -1171.6677    1213.3656 
   77000    300.06812    316.67073    277.79736   -1202.0585    1251.8524 
   78000    299.76315    316.46562    284.02655    -1238.423    1283.8898 
   79000    299.92832    317.30153    281.98149   -1280.5017    1326.4311 
   80000    300.01304     319.8065    283.16905   -1332.8212    1373.7208 
   81000    299.92239    315.26832    282.82514   -1358.2583    1404.3641 
   82000     300.3121    323.06373    283.19574   -1418.4358    1453.3831 
   83000    299.65571    320.33248    276.09666   -1450.1828    1493.6679 
   84000    300.58488    319.21072    287.08659    -1497.049    1519.1163 
   85000    300.03481    314.54296    281.03695   -1529.5714    1568.1866 
   86000    300.76574     314.5795    282.04419   -1573.2273    1609.0117 
   87000    300.92948    322.00924    280.87955   -1622.8187    1636.9821 
   88000    300.38514    319.93131    281.30808   -1665.9288    1669.0246 
   89000    300.53199    318.21726    279.14191   -1704.2169    1712.6932 
   90000    300.75969    320.05711    278.22083   -1746.3427     1761.461 
   91000    300.15601    317.71903    281.74145   -1784.7633    1796.4571 
   92000    300.08697    318.12771    277.58926   -1837.0257    1846.0901 
   93000    300.89011    316.11888    280.09331    -1874.383    1879.2498 
   94000    300.34306    319.16954    283.16527   -1927.7003    1914.7347 
   95000    301.44847    320.74082     284.2063   -1965.3512    1963.4476 
   96000    301.16647    319.03753    282.99148   -2007.5987    1997.5586 
   97000    300.37713    320.02204    284.90054   -2043.4155    2048.3704 
   98000     300.1011    316.33549    281.28232   -2078.0032    2098.8051 
   99000    300.31715    321.35291    279.22815   -2122.8306    2133.8128 
  100000     300.7951    318.13506    281.20633   -2146.3789    2173.6093 
  101000    300.34206    316.07876    278.74629   -2192.5966    2209.9049 
  102000    300.34237    321.41498    279.17988   -2229.4131    2246.2237 
  103000    299.66878    319.33895    282.60527   -2261.8546    2285.2021 
  104000    300.32289    318.30557     278.4781   -2295.9171    2320.7467 
  105000    300.23824    312.97043    282.42962    -2342.514    2368.7456 
  106000    300.07836    318.24237    282.97937   -2379.7614     2412.889 
  107000    299.57965     315.8115    277.37306   -2410.6225    2447.7317 
  108000    299.96377    315.15041    280.28682   -2438.0553     2482.372 
  109000    299.94907    320.69114    281.25335   -2496.4874    2525.7025 
  110000    300.19338    317.90991    280.35157   -2528.3773    2566.6483 
  111000     299.8767    317.98822    281.20011   -2558.0225    2600.7257 
  112000    300.22195    317.59084    280.33034   -2608.6736    2653.4765 
  113000    299.72573    315.36689    280.18237   -2645.9631    2694.3627 
  114000    299.20418    321.70786    279.87461   -2690.8496    2729.9381 
  115000    299.85922    319.66861    280.52043   -2730.5091    2774.2186 
  116000    299.64197    319.32978    282.53905   -2773.9962     2816.521 
  117000    300.66651     317.9535    282.78688   -2809.5151    2855.8765 
  118000    300.07175     320.1478    285.17845   -2850.2142    2891.0335 
  119000     299.9361    317.67611      281.461   -2889.0816    2929.2444 
  120000    300.11406    323.16869    283.94058   -2940.4494    2964.4565 
  121000    299.83575    316.56461    283.05155   -2964.2367     3007.107 
  122000    299.56122    318.93543    285.01805   -3020.3229    3045.6921 
  123000     300.1078    321.18282    277.86405   -3063.8708    3095.1556 
  124000    299.75206    320.32363    281.12863   -3109.2476    3139.8031 
  125000    299.33959    316.17174    278.30753    -3144.549    3175.0422 
  126000     299.6987    323.68561    281.65321   -3176.6469    3212.8078 
  127000    299.72814    314.18559    282.71432   -3211.7452    3254.7262 
  128000    299.00928    319.07747     277.8447   -3262.1374    3302.2543 
  129000     300.4748    319.91986    282.19662   -3310.4355    3342.5726 
  130000    299.02756    315.45373    276.37872   -3339.9403    3403.3974 
  131000    300.16267    320.47799    281.15363   -3406.0521    3441.1943 
  132000    299.90245    315.49642    281.93372   -3434.3149    3474.8686 
  133000     300.1011    318.07152    282.57581   -3472.6187     3515.095 
  134000    299.12454    317.68712    281.59787   -3511.2686    3563.9295 
  135000    299.23985    323.15942    282.94256   -3556.3735    3611.2123 
  136000    299.48523    316.49442    282.10945   -3591.8711    3646.5282 
  137000    300.00414    317.86005    276.52763   -3629.1313    3688.1588 
  138000    299.62162    320.65617     283.0684   -3667.1524    3721.4514 
  139000    298.89981    320.55763     279.4993    -3703.092    3758.6486 
  140000    299.74634    316.66366    277.21427   -3743.9961    3819.9207 
  141000    300.41608    323.14924    285.00745   -3785.2996    3840.1703 
  142000    299.50427    317.66737    283.02874   -3830.9121    3878.8977 
  143000    300.35787    317.13254    283.56311   -3882.9506    3917.2851 
  144000    300.64597    322.83048    284.24952   -3926.6879    3960.3768 
  145000    300.06864    317.62024    279.04861   -3958.2606    4005.4086 
  145001    300.06123    317.36547    278.76161   -3958.1495    4005.8391 
Loop time of 10096.6 on 32 procs for 100000 steps with 193600 atoms

Performance: 0.428 ns/day, 56.092 hours/ns, 9.904 timesteps/s
92.8% CPU use with 32 MPI tasks x no OpenMP threads

MPI task timing breakdown:
Section |  min time  |  avg time  |  max time  |%varavg| %total
---------------------------------------------------------------
Pair    | 8748.6     | 8866.3     | 8953.2     |  52.2 | 87.81
Neigh   | 0          | 0          | 0          |   0.0 |  0.00
Comm    | 548.51     | 716.78     | 887.67     | 369.3 |  7.10
Output  | 0.097781   | 0.1031     | 0.10593    |   0.7 |  0.00
Modify  | 349.7      | 480.2      | 623.6      | 410.8 |  4.76
Other   |            | 33.23      |            |       |  0.33

Nlocal:    6050 ave 6103 max 5988 min
Histogram: 1 2 3 1 2 8 9 4 1 1
Nghost:    5892.5 ave 5955 max 5840 min
Histogram: 1 1 5 8 8 2 2 1 3 1
Neighs:    0 ave 0 max 0 min
Histogram: 32 0 0 0 0 0 0 0 0 0
FullNghs:  225690 ave 228031 max 222516 min
Histogram: 1 0 4 2 2 4 11 5 2 1

Total # of neighbors = 7222064
Ave neighs/atom = 37.304
Neighbor list builds = 0
Dangerous builds = 0

# thermal conductivity calculation
# reset langevin thermostats to zero energy accumulation
reset_timestep 0
thermo		$c
thermo		500000
compute		ke all ke/atom
variable	temp atom c_ke/1.5/8.617332478e-5
fix		hot all langevin ${thi} ${thi} ${tdamp} 389516 tally yes
fix		hot all langevin 319.9225 ${thi} ${tdamp} 389516 tally yes
fix		hot all langevin 319.9225 319.9225 ${tdamp} 389516 tally yes
fix		hot all langevin 319.9225 319.9225 0.05 389516 tally yes
fix_modify	hot temp Thot
fix		cold all langevin ${tlo} ${tlo} ${tdamp} 46579 tally yes
fix		cold all langevin 280.0775 ${tlo} ${tdamp} 46579 tally yes
fix		cold all langevin 280.0775 280.0775 ${tdamp} 46579 tally yes
fix		cold all langevin 280.0775 280.0775 0.05 46579 tally yes
fix_modify	cold temp Tcold

compute		ch all chunk/atom bin/1d x lower 0.02 units reduced
fix		11 all ave/chunk $a $b $c ch v_temp file sw_${P}.langevin
fix		11 all ave/chunk 100 $b $c ch v_temp file sw_${P}.langevin
fix		11 all ave/chunk 100 5000 $c ch v_temp file sw_${P}.langevin
fix		11 all ave/chunk 100 5000 500000 ch v_temp file sw_${P}.langevin
fix		11 all ave/chunk 100 5000 500000 ch v_temp file sw_28.langevin
thermo_style	custom step temp c_Thot c_Tcold f_hot f_cold

run		${t2nve}
run		500000
Per MPI rank memory allocation (min/avg/max) = 5.115 | 5.115 | 5.117 Mbytes
Step Temp c_Thot c_Tcold f_hot f_cold 
       0    300.06123    317.31817    278.16815           -0           -0 
  500000    299.97444    323.62941    282.45998   -20073.856    20071.939 
Loop time of 50512.8 on 32 procs for 500000 steps with 193600 atoms

Performance: 0.428 ns/day, 56.125 hours/ns, 9.898 timesteps/s
92.9% CPU use with 32 MPI tasks x no OpenMP threads

MPI task timing breakdown:
Section |  min time  |  avg time  |  max time  |%varavg| %total
---------------------------------------------------------------
Pair    | 43911      | 44332      | 44930      | 117.7 | 87.76
Neigh   | 0          | 0          | 0          |   0.0 |  0.00
Comm    | 2423.7     | 3528.5     | 4485.8     | 909.2 |  6.99
Output  | 0.000854   | 0.0019113  | 0.00209    |   0.5 |  0.00
Modify  | 1894.8     | 2487.7     | 3288.1     | 980.6 |  4.92
Other   |            | 164.8      |            |       |  0.33

Nlocal:    6050 ave 6118 max 6003 min
Histogram: 5 3 4 3 4 5 3 3 1 1
Nghost:    5892.5 ave 5940 max 5824 min
Histogram: 1 1 3 3 5 3 4 4 3 5
Neighs:    0 ave 0 max 0 min
Histogram: 32 0 0 0 0 0 0 0 0 0
FullNghs:  225618 ave 228732 max 223184 min
Histogram: 2 5 4 4 4 5 2 4 1 1

Total # of neighbors = 7219770
Ave neighs/atom = 37.2922
Neighbor list builds = 0
Dangerous builds = 0
clear
next		P
jump		Si.in
Total wall time: 52:21:20
