# temperature
variable	T equal 300
#cold region temperature
#variable        tlo equal 275
variable        tlo equal ${T}-${L}*${cte}/4.0
variable        tlo equal 300-${L}*${cte}/4.0
variable        tlo equal 300-50*${cte}/4.0
variable        tlo equal 300-50*1.5938/4.0
#hot region temperature
#variable        thi equal ${cte}*${L}/2+${tlo}
variable        thi equal ${T}+${L}*${cte}/4.0
variable        thi equal 300+${L}*${cte}/4.0
variable        thi equal 300+50*${cte}/4.0
variable        thi equal 300+50*1.5938/4.0

#time step (picoseconds)
variable	dt equal 0.0005 # 0.5 femtoseconds
#number of time steps for NPT
variable	tnpt equal 5000
#number of time steps for NVT
variable	tnvt equal 40000
#number of time steps for first NVE
variable	t1nve equal 100000
#number of time steps for second NVE
variable	t2nve equal 500000

################### Variable Based on LAMMPS Documentation ######################
variable	a equal 100
variable	c equal ${t2nve}
variable	c equal 500000
variable	b equal $c/$a
variable	b equal 500000/$a
variable	b equal 500000/100
variable	tdamp equal ${dt}*100
variable	tdamp equal 0.0005*100
variable	pdamp equal ${dt}*1000
variable	pdamp equal 0.0005*1000

#----------------------------------------------------------------------------------------
# setup problem
dimension       3
boundary        p p p
atom_style      atomic
lattice 	diamond ${LC} origin 0.0 0.0 0.0 orient x 1 0 0 orient y 0 1 0 orient z 0 0 1
lattice 	diamond 5.43 origin 0.0 0.0 0.0 orient x 1 0 0 orient y 0 1 0 orient z 0 0 1
Lattice spacing in x,y,z = 5.43 5.43 5.43
region          0 block 0 $L 0 $W 0 $H units lattice side in
region          0 block 0 50 0 $W 0 $H units lattice side in
region          0 block 0 50 0 22 0 $H units lattice side in
region          0 block 0 50 0 22 0 22 units lattice side in
create_box      1 0
Created orthogonal box = (0 0 0) to (271.5 119.46 119.46)
  8 by 2 by 2 MPI processor grid
create_atoms    1 region 0
Created 193600 atoms
mass		1 28.0855
#dump		1 all xyz 1000 Si_W_${W}nm.xyz
#dump_modify	1 element Si

############################################
pair_style   sw
pair_coeff   * * Si${P}.sw Si
pair_coeff   * * Si21.sw Si
thermo		100
thermo_style custom step lx
min_style cg
minimize 0.0 1.0e-8 10000 100000
WARNING: Using 'neigh_modify every 1 delay 0 check yes' setting during minimization (../min.cpp:168)
Neighbor list info ...
  update every 1 steps, delay 0 steps, check yes
  max neighbors/atom: 2000, page size: 100000
  master list distance cutoff = 5.98108
  ghost atom cutoff = 5.98108
  binsize = 2.99054, bins = 91 40 40
  1 neighbor lists, perpetual/occasional/extra = 1 0 0
  (1) pair sw, perpetual
      attributes: full, newton on
      pair build: full/bin/atomonly
      stencil: full/bin/3d
      bin: standard
Per MPI rank memory allocation (min/avg/max) = 5.235 | 5.235 | 5.235 Mbytes
Step Lx 
       0        271.5 
       1        271.5 
Loop time of 0.306983 on 32 procs for 1 steps with 193600 atoms

96.2% CPU use with 32 MPI tasks x no OpenMP threads

Minimization stats:
  Stopping criterion = force tolerance
  Energy initial, next-to-last, final = 
        -994414.469351     -994414.469351     -994414.469351
  Force two-norm initial, final = 9.76425e-11 9.75746e-11
  Force max component initial, final = 5.69399e-13 5.71581e-13
  Final line search alpha, max atom move = 1 5.71581e-13
  Iterations, force evaluations = 1 2

MPI task timing breakdown:
Section |  min time  |  avg time  |  max time  |%varavg| %total
---------------------------------------------------------------
Pair    | 0.28738    | 0.28894    | 0.29318    |   0.2 | 94.12
Neigh   | 0          | 0          | 0          |   0.0 |  0.00
Comm    | 0.003713   | 0.010744   | 0.015177   |   2.4 |  3.50
Output  | 0          | 0          | 0          |   0.0 |  0.00
Modify  | 0          | 0          | 0          |   0.0 |  0.00
Other   |            | 0.007298   |            |       |  2.38

Nlocal:    6050 ave 6050 max 6050 min
Histogram: 32 0 0 0 0 0 0 0 0 0
Nghost:    5892.5 ave 5893 max 5892 min
Histogram: 16 0 0 0 0 0 0 0 0 16
Neighs:    0 ave 0 max 0 min
Histogram: 32 0 0 0 0 0 0 0 0 0
FullNghs:  278300 ave 278300 max 278300 min
Histogram: 32 0 0 0 0 0 0 0 0 0

Total # of neighbors = 8905600
Ave neighs/atom = 46
Neighbor list builds = 0
Dangerous builds = 0
timestep     ${dt}
timestep     0.0005
velocity 	all create $T 492845
velocity 	all create 300 492845


fix 		NPT all npt temp $T $T ${tdamp} iso 0.0 0.0 ${pdamp}
fix 		NPT all npt temp 300 $T ${tdamp} iso 0.0 0.0 ${pdamp}
fix 		NPT all npt temp 300 300 ${tdamp} iso 0.0 0.0 ${pdamp}
fix 		NPT all npt temp 300 300 0.05 iso 0.0 0.0 ${pdamp}
fix 		NPT all npt temp 300 300 0.05 iso 0.0 0.0 0.5
thermo		100
thermo_style custom step lx press
run		${tnpt}
run		5000
Per MPI rank memory allocation (min/avg/max) = 4.11 | 4.11 | 4.11 Mbytes
Step Lx Press 
       1        271.5    77119.497 
     100    275.43852    30455.395 
     200    277.53003    10497.396 
     300    278.42764    1638.4488 
     400    278.61687    42.306775 
     500    278.61961   -20.933159 
     600    278.63024     74.62495 
     700    278.64068   -73.300446 
     800    278.65496    18.236851 
     900      278.656    75.012988 
    1000    278.66499    59.984572 
    1100    278.67773   -32.011021 
    1200    278.68321    4.4538434 
    1300    278.68896   -22.198449 
    1400    278.69179    5.2680093 
    1500    278.69506    3.1459985 
    1600    278.69453   -13.190566 
    1700    278.69953   -49.881408 
    1800    278.69085    41.299497 
    1900    278.69435   -1.6197068 
    2000    278.69325   -6.9890893 
    2100    278.69638   -4.8238878 
    2200     278.6939    9.0186199 
    2300    278.69691   -21.210425 
    2400    278.69566   -22.804634 
    2500    278.69769   -10.481725 
    2600    278.69336   -48.826728 
    2700    278.69001    35.397135 
    2800    278.69877  -0.83952568 
    2900    278.69325   -32.527547 
    3000    278.70077    16.739771 
    3100    278.68941    3.6864013 
    3200    278.69662    49.816174 
    3300     278.6914   -49.320108 
    3400    278.70465    19.694881 
    3500    278.67777    59.975232 
    3600    278.72273   -172.72972 
    3700    278.66488     216.8959 
    3800     278.7267    -257.0923 
    3900    278.67093    222.71166 
    4000    278.70744   -106.37814 
    4100    278.69135    22.605478 
    4200    278.69898    15.004018 
    4300    278.69214    4.5859454 
    4400    278.70153   -1.1763165 
    4500     278.6868    32.530467 
    4600    278.70825   -89.269235 
    4700    278.68331    87.695641 
    4800    278.70618   -78.845909 
    4900    278.68813     78.27983 
    5000    278.70322   -42.317012 
    5001     278.7031    -40.80941 
Loop time of 356.11 on 32 procs for 5000 steps with 193600 atoms

Performance: 0.607 ns/day, 39.568 hours/ns, 14.041 timesteps/s
91.8% CPU use with 32 MPI tasks x no OpenMP threads

MPI task timing breakdown:
Section |  min time  |  avg time  |  max time  |%varavg| %total
---------------------------------------------------------------
Pair    | 303.68     | 308.45     | 312.45     |  11.6 | 86.62
Neigh   | 0.13039    | 0.13144    | 0.13282    |   0.2 |  0.04
Comm    | 19.91      | 28.22      | 35.572     |  78.0 |  7.92
Output  | 0.025041   | 0.029109   | 0.032956   |   1.5 |  0.01
Modify  | 12.767     | 18.351     | 24.807     |  95.3 |  5.15
Other   |            | 0.932      |            |       |  0.26

Nlocal:    6050 ave 6112 max 5990 min
Histogram: 1 2 6 3 3 6 5 3 2 1
Nghost:    5892.5 ave 5952 max 5830 min
Histogram: 1 2 3 5 5 4 3 6 2 1
Neighs:    0 ave 0 max 0 min
Histogram: 32 0 0 0 0 0 0 0 0 0
FullNghs:  211575 ave 213991 max 209214 min
Histogram: 1 2 6 3 4 4 7 2 2 1

Total # of neighbors = 6770408
Ave neighs/atom = 34.9711
Neighbor list builds = 9
Dangerous builds = 0
unfix		NPT
variable	length equal lx/${LC}
variable	length equal lx/5.43

################### Geometrical Parameters After Relaxation ###############################
# Thermostat_width
variable	TW equal ${length}/40
variable	TW equal 51.3265378556065/40
# Hot_Start
variable	hs equal ${length}/4-${TW}
variable	hs equal 51.3265378556065/4-${TW}
variable	hs equal 51.3265378556065/4-1.28316344639016
# Hot_End
variable	he equal ${length}/4+${TW}
variable	he equal 51.3265378556065/4+${TW}
variable	he equal 51.3265378556065/4+1.28316344639016
# Cold_Start
variable	cs equal 3*${length}/4-${TW}
variable	cs equal 3*51.3265378556065/4-${TW}
variable	cs equal 3*51.3265378556065/4-1.28316344639016
# Cold_End
variable	ce equal 3*${length}/4+${TW}
variable	ce equal 3*51.3265378556065/4+${TW}
variable	ce equal 3*51.3265378556065/4+1.28316344639016
###########################################################################################

################### Defining Thermostat ###################################################
region 		hot block ${hs} ${he} EDGE EDGE EDGE EDGE
region 		hot block 11.5484710175115 ${he} EDGE EDGE EDGE EDGE
region 		hot block 11.5484710175115 14.1147979102918 EDGE EDGE EDGE EDGE
region 		cold block ${cs} ${ce} EDGE EDGE EDGE EDGE
region 		cold block 37.2117399453147 ${ce} EDGE EDGE EDGE EDGE
region 		cold block 37.2117399453147 39.778066838095 EDGE EDGE EDGE EDGE
group		test region cold
9578 atoms in group test
group		test1 region hot
9571 atoms in group test1
compute		Thot all temp/region hot
compute         Tcold all temp/region cold
###########################################################################################

fix		NVT all nvt temp $T $T ${tdamp}
fix		NVT all nvt temp 300 $T ${tdamp}
fix		NVT all nvt temp 300 300 ${tdamp}
fix		NVT all nvt temp 300 300 0.05
thermo		1000
thermo_style	custom step temp
run		${tnvt}
run		40000
Per MPI rank memory allocation (min/avg/max) = 4.118 | 4.119 | 4.121 Mbytes
Step Temp 
    5001    302.45533 
    6000    300.73321 
    7000    301.61246 
    8000    296.99731 
    9000    300.16335 
   10000    302.22684 
   11000     300.3899 
   12000    300.71079 
   13000    300.70483 
   14000    299.37439 
   15000    299.52977 
   16000    301.39064 
   17000    299.61324 
   18000    301.21514 
   19000    300.56251 
   20000    300.51517 
   21000    301.50114 
   22000    299.79748 
   23000    300.53028 
   24000    299.60279 
   25000    300.22028 
   26000    299.71142 
   27000     299.1134 
   28000    300.19791 
   29000    300.20676 
   30000    300.11332 
   31000    300.16394 
   32000    301.46087 
   33000    300.58345 
   34000     300.3466 
   35000    301.23262 
   36000    299.81556 
   37000    300.23733 
   38000    299.77436 
   39000     300.2919 
   40000    299.27549 
   41000     300.1065 
   42000    300.70627 
   43000    299.20792 
   44000    299.91783 
   45000    300.17147 
   45001    300.17184 
Loop time of 2705.12 on 32 procs for 40000 steps with 193600 atoms

Performance: 0.639 ns/day, 37.571 hours/ns, 14.787 timesteps/s
92.4% CPU use with 32 MPI tasks x no OpenMP threads

MPI task timing breakdown:
Section |  min time  |  avg time  |  max time  |%varavg| %total
---------------------------------------------------------------
Pair    | 2346.6     | 2374.4     | 2413.3     |  26.2 | 87.77
Neigh   | 0          | 0          | 0          |   0.0 |  0.00
Comm    | 158.64     | 216.26     | 276.71     | 245.5 |  7.99
Output  | 0.021742   | 0.023983   | 0.027459   |   1.0 |  0.00
Modify  | 53.286     | 100.43     | 150.82     | 300.3 |  3.71
Other   |            | 14.03      |            |       |  0.52

Nlocal:    6050 ave 6089 max 5977 min
Histogram: 3 0 0 2 0 4 7 9 1 6
Nghost:    5892.5 ave 5966 max 5853 min
Histogram: 6 1 9 7 4 0 2 0 0 3
Neighs:    0 ave 0 max 0 min
Histogram: 32 0 0 0 0 0 0 0 0 0
FullNghs:  214930 ave 216748 max 211903 min
Histogram: 3 0 1 1 2 4 7 7 4 3

Total # of neighbors = 6877758
Ave neighs/atom = 35.5256
Neighbor list builds = 0
Dangerous builds = 0
velocity	all scale $T
velocity	all scale 300
unfix		NVT

fix		NVE all nve
fix		hot all langevin ${thi} ${thi} ${tdamp} 389516 tally yes
fix		hot all langevin 319.9225 ${thi} ${tdamp} 389516 tally yes
fix		hot all langevin 319.9225 319.9225 ${tdamp} 389516 tally yes
fix		hot all langevin 319.9225 319.9225 0.05 389516 tally yes
fix_modify	hot temp Thot
fix		cold all langevin ${tlo} ${tlo} ${tdamp} 46579 tally yes
fix		cold all langevin 280.0775 ${tlo} ${tdamp} 46579 tally yes
fix		cold all langevin 280.0775 280.0775 ${tdamp} 46579 tally yes
fix		cold all langevin 280.0775 280.0775 0.05 46579 tally yes
fix_modify	cold temp Tcold

thermo_style	custom step temp c_Thot c_Tcold f_hot f_cold
run		${t1nve}
run		100000
Per MPI rank memory allocation (min/avg/max) = 4.868 | 4.869 | 4.871 Mbytes
Step Temp c_Thot c_Tcold f_hot f_cold 
   45001          300    298.78524    295.50257           -0           -0 
   46000    300.26043     318.5698     285.1099   -80.526172     70.04778 
   47000    299.15909    322.44857    281.27516   -100.99063     96.82235 
   48000    299.09376    315.03371    275.97208   -119.46403     128.9477 
   49000    300.25593     320.3069    281.61425   -146.36613    139.80226 
   50000    300.18977    321.05512    284.34164   -171.04282    156.00514 
   51000    299.57931    320.61423    283.85811   -195.96224    185.17211 
   52000     300.1094    322.21588    278.50324   -226.78166      202.324 
   53000    299.69557     316.6614    281.23701   -245.71613    235.63786 
   54000    299.62129    316.53637    284.32819   -271.47098     255.3654 
   55000    299.83874     318.2013     281.9373   -298.21342    294.22793 
   56000    299.76989    319.36245    281.95766   -337.07349    322.73344 
   57000    299.49078    319.55366    284.23667   -363.96717    356.10561 
   58000     299.1253     318.5889    284.76566   -397.73544    395.17364 
   59000    299.10975    319.19987    278.71756   -431.91262    433.81489 
   60000    299.28521    316.90161    279.18312   -462.66167    463.60623 
   61000    299.54973    316.81322    280.73669    -481.8011    492.22753 
   62000    299.22696    318.03048    279.51595   -527.73245    532.93113 
   63000    299.82604    320.27172    280.57062   -555.82455    566.96867 
   64000    299.64329    321.65431    285.53326    -595.9141    598.86005 
   65000     299.5114    322.41622    280.14755   -646.70951    649.65239 
   66000    299.37274    316.38217    279.09626   -673.96208     679.5791 
   67000    299.50631    315.43664    279.55746   -705.88592    705.82921 
   68000    299.76411    315.95007    284.96945   -751.81511    737.25189 
   69000    299.94491    322.29028    282.61167   -798.83709    779.99728 
   70000    299.78304    325.00485    283.71711   -819.43989    816.66369 
   71000    299.47444    316.80736    280.87452   -855.76227    856.46356 
   72000     299.0157    318.52987    279.69008   -890.97658    893.79648 
   73000    299.67176    315.83067    280.66483   -912.74925    920.83934 
   74000    300.61929    321.32138    282.96121   -960.50931    955.93235 
   75000     299.7734    314.80403    280.83734   -979.35405    986.33051 
   76000    299.35766    316.43823    279.19854   -1023.6372    1022.7636 
   77000    299.52795    320.12751    285.74095    -1063.711    1064.5373 
   78000    300.36013    317.00662    285.99425   -1096.6934    1098.9576 
   79000    298.92199    317.90524    284.59125   -1128.5671    1127.0732 
   80000    299.19505    322.45012    284.04107   -1164.2432    1171.9222 
   81000    299.58518    321.66978    284.86826   -1194.1353    1207.5086 
   82000    299.08931    322.04584    282.99012    -1227.609    1235.6144 
   83000    299.81907    322.74484    282.33244   -1270.1969    1274.3055 
   84000    299.12985    314.58457    280.11741   -1302.5254    1308.9133 
   85000      299.235    317.00674    280.29044    -1331.472     1340.314 
   86000    299.16328    318.76505    282.13973   -1375.2754    1370.0748 
   87000    299.71799    319.15223     279.0591   -1414.8785    1414.8948 
   88000    300.52799    321.47253    282.18092   -1459.1593     1440.496 
   89000    299.22312    315.61861    281.11039   -1480.9452    1478.9406 
   90000     299.6359     319.2548    280.05098   -1515.0776    1506.3066 
   91000    300.19928     309.5667    286.88306   -1540.8362    1540.4263 
   92000    300.84483    322.43364    285.04036   -1598.7831     1580.193 
   93000    300.23499    323.47397    283.90954   -1624.3895    1623.4052 
   94000    299.52821    321.17059    282.67658   -1649.9643    1658.7347 
   95000    299.42874    313.95796    281.54842   -1664.8948    1694.3456 
   96000    299.91703    317.04338    287.64448    -1698.821    1716.9863 
   97000    298.72104     318.9435    281.82349   -1730.0635    1763.9749 
   98000    299.91649    321.39126    283.14046   -1775.9404    1790.7487 
   99000    299.83625    315.41253    282.22242    -1815.946     1824.451 
  100000    298.73638    318.95498     279.9815   -1847.7433    1865.0121 
  101000    299.92915    316.16515    283.50014   -1882.4932    1890.9819 
  102000    298.78322    320.69672    281.18486   -1931.5338    1933.2324 
  103000    298.56925    315.52344    275.15919   -1964.9885    1981.4937 
  104000    299.12494    316.26953    284.98468   -1986.0812    2006.4002 
  105000    300.24449    315.38812    285.23441   -2028.7477    2046.2144 
  106000    299.07378     319.7088    280.39707   -2067.6065    2088.9895 
  107000    299.04556    316.45319    281.44933   -2110.2642    2119.3503 
  108000    299.32043    318.34217    283.51766   -2144.2477    2163.2735 
  109000     299.0866    316.37668    284.19072   -2168.7015    2190.7659 
  110000    299.45252    318.52249    281.68359   -2221.1522    2236.4814 
  111000    299.40414    319.54944    283.28724   -2254.4346    2269.8889 
  112000    299.85284    315.99057    283.89826   -2287.3772    2308.0554 
  113000    298.78002    318.50379    283.42691   -2322.1244    2342.3956 
  114000    299.71777    324.51341     281.9717   -2374.1784    2383.3966 
  115000    299.19465    315.22394    279.17485   -2403.3533    2420.4575 
  116000    298.66727    322.02991    282.39238   -2447.6634    2447.2536 
  117000    298.85729    317.06627    281.69121   -2467.6381    2487.8546 
  118000    298.27338    315.93971    283.17484   -2504.4462     2515.383 
  119000    299.08368     316.3851    278.36482   -2546.6636     2560.566 
  120000    298.58262    315.90372    281.60409   -2579.4351    2595.2513 
  121000    299.64469    319.51249    286.57518   -2621.5155    2625.8511 
  122000    299.98937    321.64211    280.79389   -2667.5283    2667.6487 
  123000    299.97894    322.64045    282.43111   -2702.3122    2701.4551 
  124000    299.50895    321.40517    280.44299   -2731.2822     2739.537 
  125000    299.76845       318.29    277.01433    -2764.151    2771.2342 
  126000    299.75512      314.307    281.62586   -2798.6148    2800.8237 
  127000     299.2575    317.11037    283.57881    -2838.618    2837.9956 
  128000    299.33105    319.20045    279.67385   -2876.8762    2866.4026 
  129000    300.16091    320.11292    283.29486    -2905.564    2898.2222 
  130000    301.17977    319.15603     280.2321   -2942.5255    2945.9165 
  131000    299.23474    317.35927     281.9572    -2976.266    2966.0406 
  132000    299.52645    317.55208    281.64275   -3016.9624    3002.8869 
  133000    300.13899    314.59954    283.60735   -3050.2083    3035.1284 
  134000    299.96506    317.90837     282.6588   -3089.9064    3067.3518 
  135000    299.89409    319.89495    278.79366   -3130.3152    3098.3009 
  136000    299.80151    317.67243    284.72205   -3157.4591    3132.6089 
  137000    299.78455    318.28407    282.57407   -3182.4673    3171.9338 
  138000    300.33994    324.79804    282.08017   -3224.9503    3199.5088 
  139000    299.28353    320.10924     279.7607   -3244.1339    3246.0783 
  140000    299.37004    316.48061     279.6672   -3279.9495    3280.6683 
  141000    299.45075    318.27826    280.02498   -3316.1868    3324.6034 
  142000    299.40957     314.4287    280.21478   -3340.3978    3354.0308 
  143000    299.46939    323.21597    282.06774   -3385.8119    3386.8172 
  144000    299.77879     322.6916    281.40329   -3414.5548    3421.9512 
  145000    299.34993    315.54464    282.57658    -3443.234    3455.4095 
  145001    299.35503    315.47985    282.60753   -3443.3595    3455.6547 
Loop time of 6942.49 on 32 procs for 100000 steps with 193600 atoms

Performance: 0.622 ns/day, 38.569 hours/ns, 14.404 timesteps/s
91.9% CPU use with 32 MPI tasks x no OpenMP threads

MPI task timing breakdown:
Section |  min time  |  avg time  |  max time  |%varavg| %total
---------------------------------------------------------------
Pair    | 5832.2     | 5943.8     | 6033.5     |  60.2 | 85.61
Neigh   | 0          | 0          | 0          |   0.0 |  0.00
Comm    | 375.08     | 570.56     | 760.05     | 418.9 |  8.22
Output  | 0.090315   | 0.095852   | 0.099439   |   0.7 |  0.00
Modify  | 290.84     | 404.12     | 534.16     | 408.1 |  5.82
Other   |            | 23.91      |            |       |  0.34

Nlocal:    6050 ave 6113 max 6007 min
Histogram: 6 0 5 7 2 4 5 1 0 2
Nghost:    5892.5 ave 5936 max 5830 min
Histogram: 2 0 1 5 4 2 7 5 1 5
Neighs:    0 ave 0 max 0 min
Histogram: 32 0 0 0 0 0 0 0 0 0
FullNghs:  214813 ave 217115 max 213029 min
Histogram: 4 3 3 5 6 2 3 4 0 2

Total # of neighbors = 6874010
Ave neighs/atom = 35.5063
Neighbor list builds = 0
Dangerous builds = 0

# thermal conductivity calculation
# reset langevin thermostats to zero energy accumulation
reset_timestep 0
thermo		$c
thermo		500000
compute		ke all ke/atom
variable	temp atom c_ke/1.5/8.617332478e-5
fix		hot all langevin ${thi} ${thi} ${tdamp} 389516 tally yes
fix		hot all langevin 319.9225 ${thi} ${tdamp} 389516 tally yes
fix		hot all langevin 319.9225 319.9225 ${tdamp} 389516 tally yes
fix		hot all langevin 319.9225 319.9225 0.05 389516 tally yes
fix_modify	hot temp Thot
fix		cold all langevin ${tlo} ${tlo} ${tdamp} 46579 tally yes
fix		cold all langevin 280.0775 ${tlo} ${tdamp} 46579 tally yes
fix		cold all langevin 280.0775 280.0775 ${tdamp} 46579 tally yes
fix		cold all langevin 280.0775 280.0775 0.05 46579 tally yes
fix_modify	cold temp Tcold

compute		ch all chunk/atom bin/1d x lower 0.02 units reduced
fix		11 all ave/chunk $a $b $c ch v_temp file sw_${P}.langevin
fix		11 all ave/chunk 100 $b $c ch v_temp file sw_${P}.langevin
fix		11 all ave/chunk 100 5000 $c ch v_temp file sw_${P}.langevin
fix		11 all ave/chunk 100 5000 500000 ch v_temp file sw_${P}.langevin
fix		11 all ave/chunk 100 5000 500000 ch v_temp file sw_21.langevin
thermo_style	custom step temp c_Thot c_Tcold f_hot f_cold

run		${t2nve}
run		500000
Per MPI rank memory allocation (min/avg/max) = 5.118 | 5.12 | 5.121 Mbytes
Step Temp c_Thot c_Tcold f_hot f_cold 
       0    299.35503    315.72499    282.45909           -0           -0 
  500000    300.59047    318.75855    283.60827   -17661.058    17592.814 
Loop time of 34968.7 on 32 procs for 500000 steps with 193600 atoms

Performance: 0.618 ns/day, 38.854 hours/ns, 14.299 timesteps/s
91.3% CPU use with 32 MPI tasks x no OpenMP threads

MPI task timing breakdown:
Section |  min time  |  avg time  |  max time  |%varavg| %total
---------------------------------------------------------------
Pair    | 29355      | 29692      | 30140      |  98.7 | 84.91
Neigh   | 0          | 0          | 0          |   0.0 |  0.00
Comm    | 2225.2     | 3049       | 3571       | 767.8 |  8.72
Output  | 0.012836   | 0.47477    | 0.48971    |  12.0 |  0.00
Modify  | 1535.3     | 2099.9     | 2787.1     | 944.0 |  6.01
Other   |            | 127.8      |            |       |  0.37

Nlocal:    6050 ave 6092 max 6014 min
Histogram: 3 3 6 1 3 4 7 2 0 3
Nghost:    5892.5 ave 5928 max 5850 min
Histogram: 2 1 2 7 3 4 1 6 3 3
Neighs:    0 ave 0 max 0 min
Histogram: 32 0 0 0 0 0 0 0 0 0
FullNghs:  214775 ave 216573 max 213375 min
Histogram: 3 4 5 3 2 6 4 1 3 1

Total # of neighbors = 6872796
Ave neighs/atom = 35.5
Neighbor list builds = 0
Dangerous builds = 0
clear
next		P
jump		Si.in
 units       metal
#----------------------------- User Input Variables --------------------------------------
################### Geometrical Parameters ###############################
variable	P index 21 22 23 24
variable	W equal 22
# Lattice Constant
variable	LC equal 5.43
# Length
variable	L equal 50
# Width
#variable	W equal 6
# Height
variable	H equal ${W}
variable	H equal 22
################### Simulation Condition ###############################
#DT/DX=cte
variable	cte equal 1.5938
log         sw_${P}.log
log         sw_22.log
