# temperature
variable	T equal 300
#cold region temperature
#variable        tlo equal 275
variable        tlo equal ${T}-${L}*${cte}/4.0
variable        tlo equal 300-${L}*${cte}/4.0
variable        tlo equal 300-50*${cte}/4.0
variable        tlo equal 300-50*1.5938/4.0
#hot region temperature
#variable        thi equal ${cte}*${L}/2+${tlo}
variable        thi equal ${T}+${L}*${cte}/4.0
variable        thi equal 300+${L}*${cte}/4.0
variable        thi equal 300+50*${cte}/4.0
variable        thi equal 300+50*1.5938/4.0

#time step (picoseconds)
variable	dt equal 0.0005 # 0.5 femtoseconds
#number of time steps for NPT
variable	tnpt equal 5000
#number of time steps for NVT
variable	tnvt equal 40000
#number of time steps for first NVE
variable	t1nve equal 100000
#number of time steps for second NVE
variable	t2nve equal 500000

################### Variable Based on LAMMPS Documentation ######################
variable	a equal 100
variable	c equal ${t2nve}
variable	c equal 500000
variable	b equal $c/$a
variable	b equal 500000/$a
variable	b equal 500000/100
variable	tdamp equal ${dt}*100
variable	tdamp equal 0.0005*100
variable	pdamp equal ${dt}*1000
variable	pdamp equal 0.0005*1000

#----------------------------------------------------------------------------------------
# setup problem
dimension       3
boundary        p p p
atom_style      atomic
lattice 	diamond ${LC} origin 0.0 0.0 0.0 orient x 1 0 0 orient y 0 1 0 orient z 0 0 1
lattice 	diamond 5.43 origin 0.0 0.0 0.0 orient x 1 0 0 orient y 0 1 0 orient z 0 0 1
Lattice spacing in x,y,z = 5.43 5.43 5.43
region          0 block 0 $L 0 $W 0 $H units lattice side in
region          0 block 0 50 0 $W 0 $H units lattice side in
region          0 block 0 50 0 22 0 $H units lattice side in
region          0 block 0 50 0 22 0 22 units lattice side in
create_box      1 0
Created orthogonal box = (0 0 0) to (271.5 119.46 119.46)
  8 by 2 by 2 MPI processor grid
create_atoms    1 region 0
Created 193600 atoms
mass		1 28.0855
#dump		1 all xyz 1000 Si_W_${W}nm.xyz
#dump_modify	1 element Si

############################################
pair_style   sw
pair_coeff   * * Si${P}.sw Si
pair_coeff   * * Si25.sw Si
thermo		100
thermo_style custom step lx
min_style cg
minimize 0.0 1.0e-8 10000 100000
WARNING: Using 'neigh_modify every 1 delay 0 check yes' setting during minimization (../min.cpp:168)
Neighbor list info ...
  update every 1 steps, delay 0 steps, check yes
  max neighbors/atom: 2000, page size: 100000
  master list distance cutoff = 5.92032
  ghost atom cutoff = 5.92032
  binsize = 2.96016, bins = 92 41 41
  1 neighbor lists, perpetual/occasional/extra = 1 0 0
  (1) pair sw, perpetual
      attributes: full, newton on
      pair build: full/bin/atomonly
      stencil: full/bin/3d
      bin: standard
Per MPI rank memory allocation (min/avg/max) = 5.235 | 5.236 | 5.238 Mbytes
Step Lx 
       0        271.5 
       1        271.5 
Loop time of 0.310809 on 32 procs for 1 steps with 193600 atoms

95.0% CPU use with 32 MPI tasks x no OpenMP threads

Minimization stats:
  Stopping criterion = force tolerance
  Energy initial, next-to-last, final = 
        -887659.498853     -887659.498853     -887659.498853
  Force two-norm initial, final = 1.04471e-10 1.04391e-10
  Force max component initial, final = 6.12801e-13 6.15531e-13
  Final line search alpha, max atom move = 1 6.15531e-13
  Iterations, force evaluations = 1 2

MPI task timing breakdown:
Section |  min time  |  avg time  |  max time  |%varavg| %total
---------------------------------------------------------------
Pair    | 0.28573    | 0.28816    | 0.2929     |   0.3 | 92.71
Neigh   | 0          | 0          | 0          |   0.0 |  0.00
Comm    | 0.009626   | 0.014855   | 0.019355   |   2.1 |  4.78
Output  | 0          | 0          | 0          |   0.0 |  0.00
Modify  | 0          | 0          | 0          |   0.0 |  0.00
Other   |            | 0.00779    |            |       |  2.51

Nlocal:    6050 ave 6050 max 6050 min
Histogram: 32 0 0 0 0 0 0 0 0 0
Nghost:    5892.5 ave 5893 max 5892 min
Histogram: 16 0 0 0 0 0 0 0 0 16
Neighs:    0 ave 0 max 0 min
Histogram: 32 0 0 0 0 0 0 0 0 0
FullNghs:  278300 ave 278300 max 278300 min
Histogram: 32 0 0 0 0 0 0 0 0 0

Total # of neighbors = 8905600
Ave neighs/atom = 46
Neighbor list builds = 0
Dangerous builds = 0
timestep     ${dt}
timestep     0.0005
velocity 	all create $T 492845
velocity 	all create 300 492845


fix 		NPT all npt temp $T $T ${tdamp} iso 0.0 0.0 ${pdamp}
fix 		NPT all npt temp 300 $T ${tdamp} iso 0.0 0.0 ${pdamp}
fix 		NPT all npt temp 300 300 ${tdamp} iso 0.0 0.0 ${pdamp}
fix 		NPT all npt temp 300 300 0.05 iso 0.0 0.0 ${pdamp}
fix 		NPT all npt temp 300 300 0.05 iso 0.0 0.0 0.5
thermo		100
thermo_style custom step lx press
run		${tnpt}
run		5000
Per MPI rank memory allocation (min/avg/max) = 4.11 | 4.111 | 4.113 Mbytes
Step Lx Press 
       1        271.5    43484.384 
     100    274.41734    13215.749 
     200    275.58213    1947.5013 
     300    275.81115   -129.02724 
     400    275.81092    91.950996 
     500    275.83219     8.884878 
     600    275.84728    61.428636 
     700    275.86954    4.5881202 
     800    275.88645     24.57002 
     900    275.90792    4.8143009 
    1000    275.92604     45.11368 
    1100    275.94532    1.7180852 
    1200    275.96371    15.331945 
    1300    275.97847    19.402057 
    1400    275.99339  -0.83903205 
    1500    276.00174    3.7533843 
    1600    276.00624   -9.4133178 
    1700    276.00264   -8.7986067 
    1800    275.99482    14.797801 
    1900    275.99275   -10.026601 
    2000    275.99298    4.8120869 
    2100    275.99869    6.0304964 
    2200    276.00213   -10.645934 
    2300    275.99991    9.3283965 
    2400    276.00219     -39.2685 
    2500    275.99183    41.703161 
    2600    275.99498   -25.011613 
    2700    275.99918   -12.541382 
    2800    275.99273    69.353915 
    2900    276.00697     -69.4144 
    3000    275.99924    9.1407519 
    3100    275.99352    25.769712 
    3200    275.99905   -42.596722 
    3300    275.99229    38.070288 
    3400    275.99925   -15.902119 
    3500    276.00212   -14.731147 
    3600    275.99692    31.751034 
    3700    276.00066   -27.472537 
    3800    275.99565    14.979456 
    3900    275.99241    31.330014 
    4000    276.00017   -33.995459 
    4100    275.99606    40.230583 
    4200    276.00197   -22.186932 
    4300    276.00021   -12.188399 
    4400    275.99305    31.146541 
    4500    275.99871   -30.659504 
    4600    275.99439    35.533013 
    4700    276.00041   -23.107639 
    4800    275.99972    -9.296065 
    4900    275.99779    14.988353 
    5000    275.99764   -7.1070207 
    5001    275.99761   -6.9654517 
Loop time of 309.469 on 32 procs for 5000 steps with 193600 atoms

Performance: 0.698 ns/day, 34.385 hours/ns, 16.157 timesteps/s
89.9% CPU use with 32 MPI tasks x no OpenMP threads

MPI task timing breakdown:
Section |  min time  |  avg time  |  max time  |%varavg| %total
---------------------------------------------------------------
Pair    | 255.34     | 258.62     | 262.25     |  10.0 | 83.57
Neigh   | 0.082847   | 0.083893   | 0.088087   |   0.3 |  0.03
Comm    | 20.996     | 29.949     | 36.691     |  85.9 |  9.68
Output  | 0.030452   | 0.034196   | 0.03701    |   1.2 |  0.01
Modify  | 14.453     | 19.71      | 26.381     |  99.7 |  6.37
Other   |            | 1.074      |            |       |  0.35

Nlocal:    6050 ave 6095 max 5985 min
Histogram: 1 0 2 4 5 5 3 5 4 3
Nghost:    5892.5 ave 5957 max 5848 min
Histogram: 3 4 4 4 5 5 4 2 0 1
Neighs:    0 ave 0 max 0 min
Histogram: 32 0 0 0 0 0 0 0 0 0
FullNghs:  212467 ave 214095 max 209923 min
Histogram: 1 0 1 6 4 3 5 6 1 5

Total # of neighbors = 6798954
Ave neighs/atom = 35.1186
Neighbor list builds = 6
Dangerous builds = 0
unfix		NPT
variable	length equal lx/${LC}
variable	length equal lx/5.43

################### Geometrical Parameters After Relaxation ###############################
# Thermostat_width
variable	TW equal ${length}/40
variable	TW equal 50.8282882208515/40
# Hot_Start
variable	hs equal ${length}/4-${TW}
variable	hs equal 50.8282882208515/4-${TW}
variable	hs equal 50.8282882208515/4-1.27070720552129
# Hot_End
variable	he equal ${length}/4+${TW}
variable	he equal 50.8282882208515/4+${TW}
variable	he equal 50.8282882208515/4+1.27070720552129
# Cold_Start
variable	cs equal 3*${length}/4-${TW}
variable	cs equal 3*50.8282882208515/4-${TW}
variable	cs equal 3*50.8282882208515/4-1.27070720552129
# Cold_End
variable	ce equal 3*${length}/4+${TW}
variable	ce equal 3*50.8282882208515/4+${TW}
variable	ce equal 3*50.8282882208515/4+1.27070720552129
###########################################################################################

################### Defining Thermostat ###################################################
region 		hot block ${hs} ${he} EDGE EDGE EDGE EDGE
region 		hot block 11.4363648496916 ${he} EDGE EDGE EDGE EDGE
region 		hot block 11.4363648496916 13.9777792607342 EDGE EDGE EDGE EDGE
region 		cold block ${cs} ${ce} EDGE EDGE EDGE EDGE
region 		cold block 36.8505089601173 ${ce} EDGE EDGE EDGE EDGE
region 		cold block 36.8505089601173 39.3919233711599 EDGE EDGE EDGE EDGE
group		test region cold
9587 atoms in group test
group		test1 region hot
9562 atoms in group test1
compute		Thot all temp/region hot
compute         Tcold all temp/region cold
###########################################################################################

fix		NVT all nvt temp $T $T ${tdamp}
fix		NVT all nvt temp 300 $T ${tdamp}
fix		NVT all nvt temp 300 300 ${tdamp}
fix		NVT all nvt temp 300 300 0.05
thermo		1000
thermo_style	custom step temp
run		${tnvt}
run		40000
Per MPI rank memory allocation (min/avg/max) = 4.118 | 4.119 | 4.121 Mbytes
Step Temp 
    5001    300.45186 
    6000    300.80282 
    7000    300.24409 
    8000    300.67384 
    9000    301.96608 
   10000     300.6738 
   11000    299.86188 
   12000    299.84964 
   13000    298.98671 
   14000    300.20764 
   15000    300.51137 
   16000    300.59995 
   17000    299.19851 
   18000    300.05193 
   19000    300.88629 
   20000    301.03589 
   21000    300.87437 
   22000    301.70047 
   23000    300.51745 
   24000    300.53851 
   25000    299.27077 
   26000    300.09621 
   27000    301.39341 
   28000    300.47525 
   29000     300.5783 
   30000    301.40067 
   31000    299.68164 
   32000    299.92454 
   33000    300.67869 
   34000     300.9084 
   35000    299.96561 
   36000    300.64291 
   37000    299.05199 
   38000    299.57712 
   39000    299.36792 
   40000    298.79034 
   41000    300.62397 
   42000    299.33328 
   43000    300.05112 
   44000    300.49679 
   45000    300.09548 
   45001    300.14537 
Loop time of 2363.5 on 32 procs for 40000 steps with 193600 atoms

Performance: 0.731 ns/day, 32.826 hours/ns, 16.924 timesteps/s
90.3% CPU use with 32 MPI tasks x no OpenMP threads

MPI task timing breakdown:
Section |  min time  |  avg time  |  max time  |%varavg| %total
---------------------------------------------------------------
Pair    | 1981       | 2001.7     | 2026.4     |  24.4 | 84.69
Neigh   | 0          | 0          | 0          |   0.0 |  0.00
Comm    | 175.45     | 233.92     | 270.69     | 194.8 |  9.90
Output  | 0.024284   | 0.02593    | 0.029415   |   1.0 |  0.00
Modify  | 75.963     | 113.83     | 164.66     | 305.0 |  4.82
Other   |            | 14.04      |            |       |  0.59

Nlocal:    6050 ave 6116 max 5991 min
Histogram: 1 3 4 3 8 3 5 2 2 1
Nghost:    5892.5 ave 5952 max 5827 min
Histogram: 1 1 3 5 3 8 3 4 3 1
Neighs:    0 ave 0 max 0 min
Histogram: 32 0 0 0 0 0 0 0 0 0
FullNghs:  212449 ave 215020 max 210269 min
Histogram: 1 4 3 5 5 5 5 2 1 1

Total # of neighbors = 6798360
Ave neighs/atom = 35.1155
Neighbor list builds = 0
Dangerous builds = 0
velocity	all scale $T
velocity	all scale 300
unfix		NVT

fix		NVE all nve
fix		hot all langevin ${thi} ${thi} ${tdamp} 389516 tally yes
fix		hot all langevin 319.9225 ${thi} ${tdamp} 389516 tally yes
fix		hot all langevin 319.9225 319.9225 ${tdamp} 389516 tally yes
fix		hot all langevin 319.9225 319.9225 0.05 389516 tally yes
fix_modify	hot temp Thot
fix		cold all langevin ${tlo} ${tlo} ${tdamp} 46579 tally yes
fix		cold all langevin 280.0775 ${tlo} ${tdamp} 46579 tally yes
fix		cold all langevin 280.0775 280.0775 ${tdamp} 46579 tally yes
fix		cold all langevin 280.0775 280.0775 0.05 46579 tally yes
fix_modify	cold temp Tcold

thermo_style	custom step temp c_Thot c_Tcold f_hot f_cold
run		${t1nve}
run		100000
Per MPI rank memory allocation (min/avg/max) = 4.868 | 4.869 | 4.871 Mbytes
Step Temp c_Thot c_Tcold f_hot f_cold 
   45001          300    301.14251    299.10499           -0           -0 
   46000    300.13023    315.45958    283.66285   -78.591448    82.392385 
   47000    299.55593    318.19209    279.95744   -105.04627    116.66524 
   48000    299.31053    316.33242     278.8593   -130.23419    154.97401 
   49000    299.59808    321.06447    285.29799    -167.7961    179.60645 
   50000    299.99355    320.43655    279.44138   -195.80566    197.21171 
   51000     300.1009    320.19019    282.00347   -230.30038    229.11427 
   52000     300.5611    316.67391    284.55131    -259.9147    264.67061 
   53000    299.81593    316.43246    279.42423   -304.06756    300.96323 
   54000    300.35052    319.73528    284.63587   -356.13772     338.7037 
   55000    299.93675    318.56017    284.40275   -393.08786    393.83648 
   56000    300.36416    320.43578    281.89908   -439.79837    444.08689 
   57000    300.21167    320.22238    281.16113   -472.24884    489.93318 
   58000    299.78089    319.70711    280.24628   -522.02049    544.17244 
   59000    299.71181     318.4233    282.22434   -578.40313    582.75209 
   60000    299.12802    313.12156    282.71368   -615.15487    631.82427 
   61000    300.01712    316.76195    275.52926   -671.25447    685.13456 
   62000    298.97362    311.72806    279.13735   -707.94284    729.93943 
   63000    300.20443    320.92415    280.63179   -770.87998    768.53656 
   64000    300.40474    321.08611    284.73111    -809.2453    808.24059 
   65000    300.07599    322.66366    281.55273   -868.42363    859.30936 
   66000    299.82779    315.78852     280.8119   -907.51661    906.37227 
   67000    299.54453    319.76705    278.09373   -948.27978    957.27329 
   68000    299.91739    320.38347    282.54745   -986.90282    1003.3337 
   69000    299.60427    318.04533    283.63605   -1038.7776    1045.3508 
   70000    299.88656    318.77038    278.93485   -1090.2682    1104.7071 
   71000    299.22349    316.29029    280.68608   -1124.3554    1139.1371 
   72000    299.26062    317.21278    278.62665   -1179.8797    1191.0337 
   73000    299.52426    319.05188    278.29182   -1229.0119    1242.1586 
   74000    299.47739    320.42913    282.28724   -1277.1895    1289.7075 
   75000    299.27394    319.64851    277.83604   -1327.4356    1348.8527 
   76000    300.05691    317.47104    284.60949   -1375.9095    1377.6428 
   77000    300.30535    315.59749    282.12158   -1415.3957    1429.8654 
   78000    299.35906    318.30705    283.92712   -1472.2242    1478.0321 
   79000    300.88378    324.70569     284.9543   -1533.8871    1524.4143 
   80000     300.0751    314.01173    282.92945   -1561.5002    1571.9664 
   81000    299.39627     320.4689    278.03834   -1605.6477    1628.0952 
   82000    299.75676    316.30329    284.03833   -1659.4029    1669.2258 
   83000    300.22717    319.72038    282.65362   -1708.7335    1705.2266 
   84000    300.61564     320.4873    281.51034   -1759.1784    1748.9724 
   85000    300.56925    319.36199    281.79929   -1799.0253    1804.8844 
   86000     299.2157     318.1372     280.2726   -1842.4336    1849.3747 
   87000    300.34713     318.6668    280.74382   -1887.4674    1898.7666 
   88000    300.64148    322.13288    281.13111   -1936.9204    1929.4908 
   89000    299.64277    317.56038    283.55061   -1970.9676    1974.3807 
   90000     300.3809    318.51245    283.30089   -2011.1752    2026.7101 
   91000    299.37704    314.71045    284.04006    -2063.992    2072.4272 
   92000    299.77818     316.3164    281.63585   -2100.5341    2116.7815 
   93000    299.77518    319.49469    279.36004   -2162.1821    2162.2594 
   94000    299.00604     318.3012     277.4512   -2199.4117     2217.507 
   95000    299.09115    319.43675    280.41339   -2242.3068    2249.8805 
   96000    299.98074    321.67411    281.28718     -2290.56    2306.0904 
   97000    300.13642    312.80825    283.37465   -2316.0083    2352.3624 
   98000    299.38311     319.2187    282.45367   -2383.4159    2399.4121 
   99000    300.15018    323.03344    283.34077   -2429.6799    2438.5257 
  100000    300.18846    319.22114    283.13498   -2475.0274     2488.616 
  101000    300.02498    317.00288    281.56907   -2526.9157    2530.5625 
  102000    299.72065    316.84519    280.88543    -2570.694    2578.7835 
  103000    300.49209    318.77058    282.39064   -2621.0439    2623.6022 
  104000    299.81574    316.85717    281.95343   -2660.5017    2674.7717 
  105000    300.13548    316.64117    286.37524   -2712.0585    2716.0778 
  106000    300.23453    318.35685    284.34895   -2765.5971    2773.8294 
  107000    299.72543    316.65403    285.63354   -2814.9659    2814.6141 
  108000     299.9785    319.44446    282.32483   -2868.1727    2864.2892 
  109000    300.30785    315.77386    283.29049   -2912.6089    2910.7054 
  110000    300.09227    317.55695    283.89088   -2955.2063    2954.5314 
  111000     299.6392    316.28422    279.03604   -3000.6995    3007.9486 
  112000    299.93669    316.86006    283.19939    -3053.146    3049.4956 
  113000    299.73685    320.35427    282.47176   -3099.7933    3101.3744 
  114000    300.23017     317.2979    284.56854   -3144.4733    3142.1884 
  115000    299.86979     315.4144    280.76353     -3189.37    3203.2701 
  116000    299.87592    319.45075     283.9899   -3238.0346    3241.1158 
  117000    299.76445    318.44235     282.5759   -3271.6998    3274.2388 
  118000    299.95271    317.88482    284.19507   -3331.8477     3315.941 
  119000    299.95187    316.74767    279.76003   -3361.9991    3359.6132 
  120000    299.62847    315.39287    284.88961   -3412.9281    3401.2479 
  121000    300.35886    319.84951     281.4885     -3456.86    3436.4775 
  122000    300.49824     315.8787     281.6868   -3501.4056    3485.5512 
  123000    299.19637    315.57328    280.60014   -3538.8669    3530.7144 
  124000    299.62165    322.18251    279.01188   -3592.1354    3582.9657 
  125000    300.28258    309.29642    282.28047   -3628.8417    3624.7153 
  126000    300.15884    316.99337    281.60775   -3674.1329    3673.3231 
  127000    300.65266    318.54765    279.31024   -3721.4858    3716.2781 
  128000     299.9676    317.65052    283.95994   -3770.5612    3763.0576 
  129000    300.27392    315.14146    279.43989   -3815.5062    3808.7065 
  130000    299.30182    318.64127    282.91838   -3861.5612    3860.0205 
  131000    300.03525    319.36568    281.07814    -3916.544    3908.2831 
  132000    300.64054    318.57223    282.57203   -3968.3933    3954.6369 
  133000    298.66819    316.57757    277.41012    -4010.576    4016.1634 
  134000     300.2835    315.21879     284.5355   -4061.0867    4051.7009 
  135000    299.39104    314.76828    281.43134   -4107.4827    4104.1289 
  136000    299.76216     318.2506    280.31452   -4155.3066    4137.6617 
  137000    300.83397    321.29632    281.63483   -4198.6554    4190.7942 
  138000    300.06718    317.27763    284.72257   -4240.9585    4239.0746 
  139000    300.10854    314.05379    285.78992   -4288.1417    4278.8204 
  140000    300.73092    319.77599    280.50332   -4354.8335    4331.9868 
  141000    300.28715    319.13892    280.94073   -4401.0729    4374.7371 
  142000     300.5879    317.56217    282.64129   -4447.0771    4412.2051 
  143000    300.99243    318.80779    283.18484   -4490.0542    4455.2241 
  144000    300.59966    316.65468    284.55885   -4538.9405    4492.8464 
  145000    300.29596    316.97102    279.35774   -4592.5019    4547.6218 
  145001     300.2668    316.59537    279.42881   -4592.4444    4547.5178 
Loop time of 5961.93 on 32 procs for 100000 steps with 193600 atoms

Performance: 0.725 ns/day, 33.122 hours/ns, 16.773 timesteps/s
90.9% CPU use with 32 MPI tasks x no OpenMP threads

MPI task timing breakdown:
Section |  min time  |  avg time  |  max time  |%varavg| %total
---------------------------------------------------------------
Pair    | 4949.2     | 5001.7     | 5121.1     |  47.5 | 83.89
Neigh   | 0          | 0          | 0          |   0.0 |  0.00
Comm    | 315.73     | 542.46     | 683.85     | 398.3 |  9.10
Output  | 0.098631   | 0.1034     | 0.10683    |   0.7 |  0.00
Modify  | 261.63     | 386.11     | 496.28     | 378.0 |  6.48
Other   |            | 31.53      |            |       |  0.53

Nlocal:    6050 ave 6109 max 5993 min
Histogram: 1 2 4 4 10 4 0 2 2 3
Nghost:    5892.5 ave 5949 max 5833 min
Histogram: 3 1 2 1 4 10 4 4 2 1
Neighs:    0 ave 0 max 0 min
Histogram: 32 0 0 0 0 0 0 0 0 0
FullNghs:  212406 ave 214809 max 210105 min
Histogram: 1 3 4 4 8 5 0 2 2 3

Total # of neighbors = 6797008
Ave neighs/atom = 35.1085
Neighbor list builds = 0
Dangerous builds = 0

# thermal conductivity calculation
# reset langevin thermostats to zero energy accumulation
reset_timestep 0
thermo		$c
thermo		500000
compute		ke all ke/atom
variable	temp atom c_ke/1.5/8.617332478e-5
fix		hot all langevin ${thi} ${thi} ${tdamp} 389516 tally yes
fix		hot all langevin 319.9225 ${thi} ${tdamp} 389516 tally yes
fix		hot all langevin 319.9225 319.9225 ${tdamp} 389516 tally yes
fix		hot all langevin 319.9225 319.9225 0.05 389516 tally yes
fix_modify	hot temp Thot
fix		cold all langevin ${tlo} ${tlo} ${tdamp} 46579 tally yes
fix		cold all langevin 280.0775 ${tlo} ${tdamp} 46579 tally yes
fix		cold all langevin 280.0775 280.0775 ${tdamp} 46579 tally yes
fix		cold all langevin 280.0775 280.0775 0.05 46579 tally yes
fix_modify	cold temp Tcold

compute		ch all chunk/atom bin/1d x lower 0.02 units reduced
fix		11 all ave/chunk $a $b $c ch v_temp file sw_${P}.langevin
fix		11 all ave/chunk 100 $b $c ch v_temp file sw_${P}.langevin
fix		11 all ave/chunk 100 5000 $c ch v_temp file sw_${P}.langevin
fix		11 all ave/chunk 100 5000 500000 ch v_temp file sw_${P}.langevin
fix		11 all ave/chunk 100 5000 500000 ch v_temp file sw_25.langevin
thermo_style	custom step temp c_Thot c_Tcold f_hot f_cold

run		${t2nve}
run		500000
Per MPI rank memory allocation (min/avg/max) = 5.118 | 5.12 | 5.121 Mbytes
Step Temp c_Thot c_Tcold f_hot f_cold 
       0     300.2668    316.78763    279.22143           -0           -0 
  500000    300.66114    322.82074    282.30881   -23410.619    23417.337 
Loop time of 29952.5 on 32 procs for 500000 steps with 193600 atoms

Performance: 0.721 ns/day, 33.281 hours/ns, 16.693 timesteps/s
90.7% CPU use with 32 MPI tasks x no OpenMP threads

MPI task timing breakdown:
Section |  min time  |  avg time  |  max time  |%varavg| %total
---------------------------------------------------------------
Pair    | 24753      | 24967      | 25470      |  86.7 | 83.36
Neigh   | 0          | 0          | 0          |   0.0 |  0.00
Comm    | 1689.1     | 2801       | 3291.1     | 820.6 |  9.35
Output  | 0.017953   | 0.24504    | 0.34749    |  30.7 |  0.00
Modify  | 1514.8     | 2021.5     | 2645.8     | 877.5 |  6.75
Other   |            | 162.8      |            |       |  0.54

Nlocal:    6050 ave 6101 max 6017 min
Histogram: 5 2 5 6 4 5 1 2 0 2
Nghost:    5892.5 ave 5926 max 5842 min
Histogram: 2 0 2 1 5 5 5 5 3 4
Neighs:    0 ave 0 max 0 min
Histogram: 32 0 0 0 0 0 0 0 0 0
FullNghs:  212474 ave 214732 max 211067 min
Histogram: 5 1 6 7 5 3 2 1 0 2

Total # of neighbors = 6799152
Ave neighs/atom = 35.1196
Neighbor list builds = 0
Dangerous builds = 0
clear
next		P
jump		Si.in
 units       metal
#----------------------------- User Input Variables --------------------------------------
################### Geometrical Parameters ###############################
variable	P index 25 26 27 28
variable	W equal 22
# Lattice Constant
variable	LC equal 5.43
# Length
variable	L equal 50
# Width
#variable	W equal 6
# Height
variable	H equal ${W}
variable	H equal 22
################### Simulation Condition ###############################
#DT/DX=cte
variable	cte equal 1.5938
log         sw_${P}.log
log         sw_26.log
