# temperature
variable	T equal 300
#cold region temperature
#variable        tlo equal 275
variable        tlo equal ${T}-${L}*${cte}/4.0
variable        tlo equal 300-${L}*${cte}/4.0
variable        tlo equal 300-50*${cte}/4.0
variable        tlo equal 300-50*1.5938/4.0
#hot region temperature
#variable        thi equal ${cte}*${L}/2+${tlo}
variable        thi equal ${T}+${L}*${cte}/4.0
variable        thi equal 300+${L}*${cte}/4.0
variable        thi equal 300+50*${cte}/4.0
variable        thi equal 300+50*1.5938/4.0

#time step (picoseconds)
variable	dt equal 0.0005 # 0.5 femtoseconds
#number of time steps for NPT
variable	tnpt equal 5000
#number of time steps for NVT
variable	tnvt equal 40000
#number of time steps for first NVE
variable	t1nve equal 100000
#number of time steps for second NVE
variable	t2nve equal 500000

################### Variable Based on LAMMPS Documentation ######################
variable	a equal 100
variable	c equal ${t2nve}
variable	c equal 500000
variable	b equal $c/$a
variable	b equal 500000/$a
variable	b equal 500000/100
variable	tdamp equal ${dt}*100
variable	tdamp equal 0.0005*100
variable	pdamp equal ${dt}*1000
variable	pdamp equal 0.0005*1000

#----------------------------------------------------------------------------------------
# setup problem
dimension       3
boundary        p p p
atom_style      atomic
lattice 	diamond ${LC} origin 0.0 0.0 0.0 orient x 1 0 0 orient y 0 1 0 orient z 0 0 1
lattice 	diamond 5.43 origin 0.0 0.0 0.0 orient x 1 0 0 orient y 0 1 0 orient z 0 0 1
Lattice spacing in x,y,z = 5.43 5.43 5.43
region          0 block 0 $L 0 $W 0 $H units lattice side in
region          0 block 0 50 0 $W 0 $H units lattice side in
region          0 block 0 50 0 22 0 $H units lattice side in
region          0 block 0 50 0 22 0 22 units lattice side in
create_box      1 0
Created orthogonal box = (0 0 0) to (271.5 119.46 119.46)
  8 by 2 by 2 MPI processor grid
create_atoms    1 region 0
Created 193600 atoms
mass		1 28.0855
#dump		1 all xyz 1000 Si_W_${W}nm.xyz
#dump_modify	1 element Si

############################################
pair_style   sw
pair_coeff   * * Si${P}.sw Si
pair_coeff   * * Si27.sw Si
thermo		100
thermo_style custom step lx
min_style cg
minimize 0.0 1.0e-8 10000 100000
WARNING: Using 'neigh_modify every 1 delay 0 check yes' setting during minimization (../min.cpp:168)
Neighbor list info ...
  update every 1 steps, delay 0 steps, check yes
  max neighbors/atom: 2000, page size: 100000
  master list distance cutoff = 5.8657
  ghost atom cutoff = 5.8657
  binsize = 2.93285, bins = 93 41 41
  1 neighbor lists, perpetual/occasional/extra = 1 0 0
  (1) pair sw, perpetual
      attributes: full, newton on
      pair build: full/bin/atomonly
      stencil: full/bin/3d
      bin: standard
Per MPI rank memory allocation (min/avg/max) = 5.235 | 5.235 | 5.235 Mbytes
Step Lx 
       0        271.5 
       1        271.5 
Loop time of 0.303753 on 32 procs for 1 steps with 193600 atoms

96.2% CPU use with 32 MPI tasks x no OpenMP threads

Minimization stats:
  Stopping criterion = force tolerance
  Energy initial, next-to-last, final = 
        -820289.530155     -820289.530155     -820289.530155
  Force two-norm initial, final = 9.45168e-11 9.44443e-11
  Force max component initial, final = 5.53082e-13 5.55389e-13
  Final line search alpha, max atom move = 1 5.55389e-13
  Iterations, force evaluations = 1 2

MPI task timing breakdown:
Section |  min time  |  avg time  |  max time  |%varavg| %total
---------------------------------------------------------------
Pair    | 0.28337    | 0.28524    | 0.28832    |   0.2 | 93.91
Neigh   | 0          | 0          | 0          |   0.0 |  0.00
Comm    | 0.005305   | 0.010606   | 0.015852   |   2.4 |  3.49
Output  | 0          | 0          | 0          |   0.0 |  0.00
Modify  | 0          | 0          | 0          |   0.0 |  0.00
Other   |            | 0.007905   |            |       |  2.60

Nlocal:    6050 ave 6050 max 6050 min
Histogram: 32 0 0 0 0 0 0 0 0 0
Nghost:    5892.5 ave 5893 max 5892 min
Histogram: 16 0 0 0 0 0 0 0 0 16
Neighs:    0 ave 0 max 0 min
Histogram: 32 0 0 0 0 0 0 0 0 0
FullNghs:  205700 ave 205700 max 205700 min
Histogram: 32 0 0 0 0 0 0 0 0 0

Total # of neighbors = 6582400
Ave neighs/atom = 34
Neighbor list builds = 0
Dangerous builds = 0
timestep     ${dt}
timestep     0.0005
velocity 	all create $T 492845
velocity 	all create 300 492845


fix 		NPT all npt temp $T $T ${tdamp} iso 0.0 0.0 ${pdamp}
fix 		NPT all npt temp 300 $T ${tdamp} iso 0.0 0.0 ${pdamp}
fix 		NPT all npt temp 300 300 ${tdamp} iso 0.0 0.0 ${pdamp}
fix 		NPT all npt temp 300 300 0.05 iso 0.0 0.0 ${pdamp}
fix 		NPT all npt temp 300 300 0.05 iso 0.0 0.0 0.5
thermo		100
thermo_style custom step lx press
run		${tnpt}
run		5000
Per MPI rank memory allocation (min/avg/max) = 4.11 | 4.11 | 4.11 Mbytes
Step Lx Press 
       1        271.5    28098.307 
     100     273.7537    5637.3914 
     200    274.36436   -183.06573 
     300    274.35624    113.77703 
     400     274.3824   -4.8527277 
     500    274.39308    48.412175 
     600    274.41636    12.940667 
     700    274.43119    39.271237 
     800    274.45208    4.8693939 
     900    274.47066    36.208924 
    1000    274.49092   -3.6039407 
    1100    274.50946     33.05949 
    1200    274.52584    6.4896259 
    1300    274.54305   -4.9848986 
    1400    274.55412    15.826588 
    1500    274.56478   -5.0466605 
    1600    274.56495    18.071979 
    1700    274.56465   -27.846513 
    1800    274.55603   -2.9392635 
    1900    274.55352    4.2527426 
    2000    274.55404    8.4022658 
    2100    274.56019   -5.5790163 
    2200    274.56351   -7.1475375 
    2300    274.56416   -10.696649 
    2400    274.55651    8.2248553 
    2500    274.55548   -5.1146155 
    2600    274.55858   -24.818733 
    2700    274.55428    47.011863 
    2800    274.56589   -57.554233 
    2900    274.55827    55.207876 
    3000    274.55915   -31.158328 
    3100     274.5652   -44.523821 
    3200    274.54145    140.61338 
    3300    274.57228   -163.21208 
    3400    274.54854    124.67159 
    3500    274.56602   -55.403597 
    3600    274.56243    -11.81582 
    3700    274.55332    37.259383 
    3800    274.56435   -65.531495 
    3900    274.54745    74.766356 
    4000    274.56765   -79.266427 
    4100    274.55261    78.083831 
    4200    274.56731   -70.972265 
    4300    274.55754    16.371969 
    4400    274.55576     7.392082 
    4500    274.56001   -25.203145 
    4600    274.55298    37.020254 
    4700    274.56486   -45.222016 
    4800     274.5542    50.823278 
    4900    274.56858   -53.594604 
    5000     274.5518    51.887258 
    5001    274.55181    52.294783 
Loop time of 212.728 on 32 procs for 5000 steps with 193600 atoms

Performance: 1.015 ns/day, 23.636 hours/ns, 23.504 timesteps/s
86.7% CPU use with 32 MPI tasks x no OpenMP threads

MPI task timing breakdown:
Section |  min time  |  avg time  |  max time  |%varavg| %total
---------------------------------------------------------------
Pair    | 164.57     | 166.99     | 170.63     |  11.2 | 78.50
Neigh   | 0.052195   | 0.053757   | 0.055818   |   0.3 |  0.03
Comm    | 19.283     | 27.16      | 34.892     |  75.5 | 12.77
Output  | 0.027879   | 0.031828   | 0.033835   |   1.0 |  0.01
Modify  | 11.223     | 17.3       | 22.977     |  90.8 |  8.13
Other   |            | 1.193      |            |       |  0.56

Nlocal:    6050 ave 6109 max 5998 min
Histogram: 1 4 2 7 5 3 5 1 3 1
Nghost:    5892.5 ave 5945 max 5833 min
Histogram: 1 3 1 5 2 6 7 2 4 1
Neighs:    0 ave 0 max 0 min
Histogram: 32 0 0 0 0 0 0 0 0 0
FullNghs:  208773 ave 210871 max 206864 min
Histogram: 1 4 4 4 5 4 3 3 3 1

Total # of neighbors = 6680730
Ave neighs/atom = 34.5079
Neighbor list builds = 4
Dangerous builds = 0
unfix		NPT
variable	length equal lx/${LC}
variable	length equal lx/5.43

################### Geometrical Parameters After Relaxation ###############################
# Thermostat_width
variable	TW equal ${length}/40
variable	TW equal 50.5620276598407/40
# Hot_Start
variable	hs equal ${length}/4-${TW}
variable	hs equal 50.5620276598407/4-${TW}
variable	hs equal 50.5620276598407/4-1.26405069149602
# Hot_End
variable	he equal ${length}/4+${TW}
variable	he equal 50.5620276598407/4+${TW}
variable	he equal 50.5620276598407/4+1.26405069149602
# Cold_Start
variable	cs equal 3*${length}/4-${TW}
variable	cs equal 3*50.5620276598407/4-${TW}
variable	cs equal 3*50.5620276598407/4-1.26405069149602
# Cold_End
variable	ce equal 3*${length}/4+${TW}
variable	ce equal 3*50.5620276598407/4+${TW}
variable	ce equal 3*50.5620276598407/4+1.26405069149602
###########################################################################################

################### Defining Thermostat ###################################################
region 		hot block ${hs} ${he} EDGE EDGE EDGE EDGE
region 		hot block 11.3764562234642 ${he} EDGE EDGE EDGE EDGE
region 		hot block 11.3764562234642 13.9045576064562 EDGE EDGE EDGE EDGE
region 		cold block ${cs} ${ce} EDGE EDGE EDGE EDGE
region 		cold block 36.6574700533845 ${ce} EDGE EDGE EDGE EDGE
region 		cold block 36.6574700533845 39.1855714363765 EDGE EDGE EDGE EDGE
group		test region cold
9573 atoms in group test
group		test1 region hot
9597 atoms in group test1
compute		Thot all temp/region hot
compute         Tcold all temp/region cold
###########################################################################################

fix		NVT all nvt temp $T $T ${tdamp}
fix		NVT all nvt temp 300 $T ${tdamp}
fix		NVT all nvt temp 300 300 ${tdamp}
fix		NVT all nvt temp 300 300 0.05
thermo		1000
thermo_style	custom step temp
run		${tnvt}
run		40000
Per MPI rank memory allocation (min/avg/max) = 4.118 | 4.119 | 4.121 Mbytes
Step Temp 
    5001    299.98752 
    6000     303.0755 
    7000    299.57539 
    8000    300.17823 
    9000    298.99997 
   10000    301.58889 
   11000    301.49401 
   12000    301.96096 
   13000    301.61184 
   14000    299.92755 
   15000    300.29063 
   16000    300.52508 
   17000    298.90865 
   18000    299.81753 
   19000     299.5199 
   20000    299.59909 
   21000    300.19681 
   22000    300.10584 
   23000    298.91133 
   24000    301.03303 
   25000    299.75394 
   26000     299.6375 
   27000    298.68622 
   28000    300.44601 
   29000     299.3379 
   30000    298.58913 
   31000    301.11351 
   32000    299.36803 
   33000    298.37966 
   34000    298.67608 
   35000    299.31395 
   36000    301.65353 
   37000     300.3796 
   38000    300.71641 
   39000    301.28038 
   40000     300.1971 
   41000    300.49003 
   42000    300.17669 
   43000    299.84003 
   44000    300.84777 
   45000    300.26778 
   45001     300.2322 
Loop time of 1595.91 on 32 procs for 40000 steps with 193600 atoms

Performance: 1.083 ns/day, 22.165 hours/ns, 25.064 timesteps/s
89.0% CPU use with 32 MPI tasks x no OpenMP threads

MPI task timing breakdown:
Section |  min time  |  avg time  |  max time  |%varavg| %total
---------------------------------------------------------------
Pair    | 1299.6     | 1315       | 1344.6     |  26.3 | 82.40
Neigh   | 0          | 0          | 0          |   0.0 |  0.00
Comm    | 128.25     | 183.12     | 235.52     | 214.9 | 11.47
Output  | 0.022814   | 0.024937   | 0.028137   |   1.0 |  0.00
Modify  | 39.319     | 83.629     | 126.4      | 285.9 |  5.24
Other   |            | 14.17      |            |       |  0.89

Nlocal:    6050 ave 6098 max 6005 min
Histogram: 4 3 2 5 3 3 4 4 2 2
Nghost:    5892.5 ave 5937 max 5845 min
Histogram: 2 2 5 3 3 3 5 2 3 4
Neighs:    0 ave 0 max 0 min
Histogram: 32 0 0 0 0 0 0 0 0 0
FullNghs:  210137 ave 211885 max 208383 min
Histogram: 4 1 5 4 1 5 3 3 2 4

Total # of neighbors = 6724382
Ave neighs/atom = 34.7334
Neighbor list builds = 0
Dangerous builds = 0
velocity	all scale $T
velocity	all scale 300
unfix		NVT

fix		NVE all nve
fix		hot all langevin ${thi} ${thi} ${tdamp} 389516 tally yes
fix		hot all langevin 319.9225 ${thi} ${tdamp} 389516 tally yes
fix		hot all langevin 319.9225 319.9225 ${tdamp} 389516 tally yes
fix		hot all langevin 319.9225 319.9225 0.05 389516 tally yes
fix_modify	hot temp Thot
fix		cold all langevin ${tlo} ${tlo} ${tdamp} 46579 tally yes
fix		cold all langevin 280.0775 ${tlo} ${tdamp} 46579 tally yes
fix		cold all langevin 280.0775 280.0775 ${tdamp} 46579 tally yes
fix		cold all langevin 280.0775 280.0775 0.05 46579 tally yes
fix_modify	cold temp Tcold

thermo_style	custom step temp c_Thot c_Tcold f_hot f_cold
run		${t1nve}
run		100000
Per MPI rank memory allocation (min/avg/max) = 4.868 | 4.869 | 4.871 Mbytes
Step Temp c_Thot c_Tcold f_hot f_cold 
   45001          300    303.70281    301.50858           -0           -0 
   46000    300.45738     325.1928    278.16795   -74.946335    84.188131 
   47000    299.58981    318.38666    282.49847   -91.243388    113.84718 
   48000    299.86987    315.61629    281.69179    -123.7096    131.48585 
   49000    299.59833    315.76817    282.28903   -140.07166    159.90411 
   50000    300.97843     321.0936    282.32122   -179.36415    179.64176 
   51000    299.85817    317.32777    278.79032   -201.87778    208.97877 
   52000    299.83457    319.62492     279.8525   -227.17922    241.08774 
   53000    300.51703    317.60409    281.47755   -251.23068    273.41023 
   54000    299.69627    319.72352    279.76033   -282.41165    311.77481 
   55000    299.43807    315.59405    280.44996   -316.83514    343.68228 
   56000     300.1411    319.46356    284.94364   -363.54363    383.77539 
   57000    300.47701    318.54159    282.61526   -384.25022     431.9567 
   58000    299.03981    322.47128    277.46794   -441.19711    470.74639 
   59000     299.0753     312.4743    278.90291   -473.63281    504.82889 
   60000    299.96761    315.67457     279.0249   -508.27961     535.4201 
   61000    300.04005    318.54953    282.58033   -556.67602     579.8394 
   62000    299.17438    319.18562    282.26132   -599.86308    614.00067 
   63000    299.57457    316.54319    284.06713    -631.9018     639.1266 
   64000    300.92454     320.7103    281.42231   -671.24367    684.97075 
   65000     300.3702     315.6639    282.98795   -710.63814    720.29658 
   66000    299.90124    315.37749    280.77611   -756.01489    771.28938 
   67000     299.6778    317.56567    280.90341   -780.18598    816.71056 
   68000    299.80796    319.72175    281.57307   -823.94423      863.166 
   69000    299.61448    315.73152    279.90726   -854.06518    895.33819 
   70000    299.91637    318.69009    276.69913   -907.06546    944.44119 
   71000    299.42514     314.9736    287.09829   -949.40587    975.47037 
   72000    300.05573    324.35241    282.25833   -988.39478    1010.7566 
   73000     299.8153    319.26335    278.72341   -1024.3408    1051.5417 
   74000    300.41862    320.38544    282.87766   -1070.1426      1088.53 
   75000    300.52012    319.68067      285.375   -1122.2366    1139.8028 
   76000    299.86909    319.83756    280.19852   -1158.3648    1181.8595 
   77000    300.40786    313.69343    286.18224   -1208.5747    1214.7401 
   78000    300.13396    315.04688    278.39245   -1255.4263    1268.6615 
   79000    299.64049     318.3321    279.53906   -1295.5566    1308.3288 
   80000    299.69342    322.50176    279.87602   -1337.7548    1353.1485 
   81000    300.60143    322.44114    282.21565    -1374.669    1402.6996 
   82000    299.74101    320.18629    281.97707   -1404.7788    1447.1191 
   83000    299.93057    313.25861    278.26386   -1441.1012     1497.251 
   84000    299.84481    320.33148    283.45996   -1490.7319    1523.3385 
   85000    299.46946    314.93623     282.4678   -1535.1092    1569.9909 
   86000    300.09212    318.06029    278.52823   -1579.9361    1608.6608 
   87000    299.36871    312.94539    279.09349   -1611.8751    1648.4569 
   88000    300.16286    318.25688    283.73652   -1664.1949    1678.6436 
   89000    300.03478    317.11076    282.20567   -1696.4468    1724.1657 
   90000    299.75245    317.21324    285.87163   -1738.6406    1765.7508 
   91000    300.03632    315.02222    277.79261   -1779.3481    1804.8372 
   92000    299.58326    323.40596    284.58888   -1829.3978    1833.4228 
   93000     299.5755    316.02805     284.3443   -1855.6838    1880.1521 
   94000    299.80355    323.27199    281.80963   -1921.4802    1917.1058 
   95000    300.50503    322.35957    282.78327   -1959.3035    1969.2423 
   96000    301.42199    322.20024    282.72541   -1999.5347    2009.2799 
   97000    299.94904    319.91175    280.66984   -2032.7849    2048.0945 
   98000    300.46404    314.11585    279.50764   -2063.0868    2088.3621 
   99000    300.03142    318.30313    279.84159    -2106.928    2130.8125 
  100000    299.87523    319.90536    280.87487    -2157.997     2168.365 
  101000    300.26493    315.96444    281.36395   -2195.1315    2217.7362 
  102000    299.74531    319.36522     280.7838   -2245.0797    2262.4984 
  103000     299.4841    316.80815    280.55609   -2273.7158     2312.803 
  104000     300.0299    322.06016    279.28064   -2337.0184    2366.5917 
  105000    299.02165    318.80388    278.64232   -2369.8193    2407.2071 
  106000    299.41753    316.45565    286.22582   -2413.7097    2439.7718 
  107000    300.29997    314.02647    285.95657   -2445.3866    2485.0998 
  108000    300.61786    322.11141    282.06114    -2498.922    2533.7726 
  109000    299.86392    319.13217    279.22015   -2540.3185    2577.7589 
  110000    300.50555    318.77375    281.11872   -2572.7745    2616.3633 
  111000    299.24977    319.29057    280.78669    -2626.722    2664.4933 
  112000    300.23172    315.43181    280.08745   -2663.5136    2705.8086 
  113000    299.71311    320.54519    281.86141   -2718.6586     2748.537 
  114000    299.64434    315.76368    282.95612   -2743.7937    2786.2052 
  115000       300.26    316.04002    281.96451   -2793.4946    2830.1575 
  116000    299.82989    316.15283    284.81237   -2836.2771    2851.2623 
  117000    300.11377    313.99774     285.7362   -2881.0359    2904.6592 
  118000    300.55292    320.01452    282.28068   -2937.8592    2947.9919 
  119000    300.28652    318.41626    281.68056   -2958.9114    2993.1459 
  120000    299.73931    315.23942    282.47886   -3000.5921    3039.4624 
  121000    299.63472    318.55209    285.12732   -3047.3939    3074.7195 
  122000    300.67055    321.92812    284.47806   -3098.2644    3102.7617 
  123000    301.17806    323.69627    286.66273    -3137.942    3143.5074 
  124000    300.36202    314.97475    282.52511   -3159.4924     3178.173 
  125000    300.79844    319.56157    281.13282   -3214.7621    3222.3301 
  126000    300.44741    323.33125    284.97817   -3259.5708    3263.0171 
  127000    300.22113    316.65526     281.3131   -3291.7593    3315.2785 
  128000    300.74135    321.57321    285.49637    -3340.581     3353.789 
  129000    300.38394    315.84806    277.45756   -3365.3587    3391.6648 
  130000    299.75442    317.92542    283.42164   -3421.4598    3436.7178 
  131000    299.63144     317.4703    278.36531   -3457.2291    3490.1536 
  132000    299.81903    317.95123    281.78935    -3496.532    3525.8996 
  133000    299.96224      316.553    283.18875   -3531.3529    3573.1004 
  134000    299.20793    315.50969     280.0054    -3579.739    3616.4654 
  135000     299.2706    313.96568    282.45205   -3623.2733     3659.443 
  136000    299.72242    318.45276      280.017    -3673.048    3705.9545 
  137000    300.24818    320.47687    286.62119   -3715.9934    3731.1828 
  138000    300.20288    314.83124    283.76631   -3753.8326     3768.606 
  139000    300.07399    316.88268     280.2474   -3790.6222    3820.3825 
  140000    300.02818     317.6022    281.67255   -3840.6138     3852.639 
  141000    300.18207    312.22109    280.52989   -3878.0722    3891.4206 
  142000    300.18425    320.59109    284.84285   -3925.9856    3937.4307 
  143000    300.14281    319.86842    282.13444   -3971.0137    3981.0003 
  144000    300.56953    320.05415    282.06728     -4017.23    4026.9201 
  145000    300.85206     320.4082    281.44676   -4050.8726    4059.8146 
  145001    300.91684    320.80468    281.73455   -4051.5331    4059.5109 
Loop time of 4161.64 on 32 procs for 100000 steps with 193600 atoms

Performance: 1.038 ns/day, 23.120 hours/ns, 24.029 timesteps/s
88.3% CPU use with 32 MPI tasks x no OpenMP threads

MPI task timing breakdown:
Section |  min time  |  avg time  |  max time  |%varavg| %total
---------------------------------------------------------------
Pair    | 3251.8     | 3289.4     | 3328.5     |  32.7 | 79.04
Neigh   | 0          | 0          | 0          |   0.0 |  0.00
Comm    | 346.3      | 479.43     | 602.28     | 351.4 | 11.52
Output  | 0.097974   | 0.10508    | 0.10802    |   0.8 |  0.00
Modify  | 230.28     | 356.91     | 466.21     | 395.3 |  8.58
Other   |            | 35.83      |            |       |  0.86

Nlocal:    6050 ave 6096 max 6000 min
Histogram: 3 1 2 3 3 10 5 0 3 2
Nghost:    5892.5 ave 5942 max 5846 min
Histogram: 2 3 0 5 10 3 3 2 1 3
Neighs:    0 ave 0 max 0 min
Histogram: 32 0 0 0 0 0 0 0 0 0
FullNghs:  210143 ave 212012 max 208012 min
Histogram: 2 1 3 2 3 9 5 3 3 1

Total # of neighbors = 6724574
Ave neighs/atom = 34.7344
Neighbor list builds = 0
Dangerous builds = 0

# thermal conductivity calculation
# reset langevin thermostats to zero energy accumulation
reset_timestep 0
thermo		$c
thermo		500000
compute		ke all ke/atom
variable	temp atom c_ke/1.5/8.617332478e-5
fix		hot all langevin ${thi} ${thi} ${tdamp} 389516 tally yes
fix		hot all langevin 319.9225 ${thi} ${tdamp} 389516 tally yes
fix		hot all langevin 319.9225 319.9225 ${tdamp} 389516 tally yes
fix		hot all langevin 319.9225 319.9225 0.05 389516 tally yes
fix_modify	hot temp Thot
fix		cold all langevin ${tlo} ${tlo} ${tdamp} 46579 tally yes
fix		cold all langevin 280.0775 ${tlo} ${tdamp} 46579 tally yes
fix		cold all langevin 280.0775 280.0775 ${tdamp} 46579 tally yes
fix		cold all langevin 280.0775 280.0775 0.05 46579 tally yes
fix_modify	cold temp Tcold

compute		ch all chunk/atom bin/1d x lower 0.02 units reduced
fix		11 all ave/chunk $a $b $c ch v_temp file sw_${P}.langevin
fix		11 all ave/chunk 100 $b $c ch v_temp file sw_${P}.langevin
fix		11 all ave/chunk 100 5000 $c ch v_temp file sw_${P}.langevin
fix		11 all ave/chunk 100 5000 500000 ch v_temp file sw_${P}.langevin
fix		11 all ave/chunk 100 5000 500000 ch v_temp file sw_27.langevin
thermo_style	custom step temp c_Thot c_Tcold f_hot f_cold

run		${t2nve}
run		500000
Per MPI rank memory allocation (min/avg/max) = 5.118 | 5.12 | 5.121 Mbytes
Step Temp c_Thot c_Tcold f_hot f_cold 
       0    300.91684    321.31391     282.1146           -0           -0 
  500000    299.86236    319.09446    280.79308    -20914.96    20922.319 
Loop time of 20874.1 on 32 procs for 500000 steps with 193600 atoms

Performance: 1.035 ns/day, 23.193 hours/ns, 23.953 timesteps/s
88.1% CPU use with 32 MPI tasks x no OpenMP threads

MPI task timing breakdown:
Section |  min time  |  avg time  |  max time  |%varavg| %total
---------------------------------------------------------------
Pair    | 16232      | 16447      | 16576      |  65.9 | 78.79
Neigh   | 0          | 0          | 0          |   0.0 |  0.00
Comm    | 1792.2     | 2467.4     | 2931       | 772.2 | 11.82
Output  | 0.035872   | 0.27617    | 0.38455    |  30.6 |  0.00
Modify  | 1331.1     | 1779.7     | 2394.6     | 882.9 |  8.53
Other   |            | 179.8      |            |       |  0.86

Nlocal:    6050 ave 6088 max 6006 min
Histogram: 1 2 2 3 5 7 4 3 3 2
Nghost:    5892.5 ave 5937 max 5855 min
Histogram: 2 3 3 4 7 5 3 2 2 1
Neighs:    0 ave 0 max 0 min
Histogram: 32 0 0 0 0 0 0 0 0 0
FullNghs:  210118 ave 211631 max 208515 min
Histogram: 1 2 4 3 6 6 2 3 3 2

Total # of neighbors = 6723774
Ave neighs/atom = 34.7302
Neighbor list builds = 0
Dangerous builds = 0
clear
next		P
jump		Si.in
 units       metal
#----------------------------- User Input Variables --------------------------------------
################### Geometrical Parameters ###############################
variable	P index 25 26 27 28
variable	W equal 22
# Lattice Constant
variable	LC equal 5.43
# Length
variable	L equal 50
# Width
#variable	W equal 6
# Height
variable	H equal ${W}
variable	H equal 22
################### Simulation Condition ###############################
#DT/DX=cte
variable	cte equal 1.5938
log         sw_${P}.log
log         sw_28.log
