# temperature
variable	T equal 300
#cold region temperature
#variable        tlo equal 275
variable        tlo equal ${T}-${L}*${cte}/4.0
variable        tlo equal 300-${L}*${cte}/4.0
variable        tlo equal 300-50*${cte}/4.0
variable        tlo equal 300-50*1.5938/4.0
#hot region temperature
#variable        thi equal ${cte}*${L}/2+${tlo}
variable        thi equal ${T}+${L}*${cte}/4.0
variable        thi equal 300+${L}*${cte}/4.0
variable        thi equal 300+50*${cte}/4.0
variable        thi equal 300+50*1.5938/4.0

#time step (picoseconds)
variable	dt equal 0.0005 # 0.5 femtoseconds
#number of time steps for NPT
variable	tnpt equal 5000
#number of time steps for NVT
variable	tnvt equal 40000
#number of time steps for first NVE
variable	t1nve equal 100000
#number of time steps for second NVE
variable	t2nve equal 500000

################### Variable Based on LAMMPS Documentation ######################
variable	a equal 100
variable	c equal ${t2nve}
variable	c equal 500000
variable	b equal $c/$a
variable	b equal 500000/$a
variable	b equal 500000/100
variable	tdamp equal ${dt}*100
variable	tdamp equal 0.0005*100
variable	pdamp equal ${dt}*1000
variable	pdamp equal 0.0005*1000

#----------------------------------------------------------------------------------------
# setup problem
dimension       3
boundary        p p p
atom_style      atomic
lattice 	diamond ${LC} origin 0.0 0.0 0.0 orient x 1 0 0 orient y 0 1 0 orient z 0 0 1
lattice 	diamond 5.43 origin 0.0 0.0 0.0 orient x 1 0 0 orient y 0 1 0 orient z 0 0 1
Lattice spacing in x,y,z = 5.43 5.43 5.43
region          0 block 0 $L 0 $W 0 $H units lattice side in
region          0 block 0 50 0 $W 0 $H units lattice side in
region          0 block 0 50 0 22 0 $H units lattice side in
region          0 block 0 50 0 22 0 22 units lattice side in
create_box      1 0
Created orthogonal box = (0 0 0) to (271.5 119.46 119.46)
  8 by 2 by 2 MPI processor grid
create_atoms    1 region 0
Created 193600 atoms
mass		1 28.0855
#dump		1 all xyz 1000 Si_W_${W}nm.xyz
#dump_modify	1 element Si

############################################
pair_style   sw
pair_coeff   * * Si${P}.sw Si
pair_coeff   * * Si22.sw Si
thermo		100
thermo_style custom step lx
min_style cg
minimize 0.0 1.0e-8 10000 100000
WARNING: Using 'neigh_modify every 1 delay 0 check yes' setting during minimization (../min.cpp:168)
Neighbor list info ...
  update every 1 steps, delay 0 steps, check yes
  max neighbors/atom: 2000, page size: 100000
  master list distance cutoff = 5.98206
  ghost atom cutoff = 5.98206
  binsize = 2.99103, bins = 91 40 40
  1 neighbor lists, perpetual/occasional/extra = 1 0 0
  (1) pair sw, perpetual
      attributes: full, newton on
      pair build: full/bin/atomonly
      stencil: full/bin/3d
      bin: standard
Per MPI rank memory allocation (min/avg/max) = 5.235 | 5.235 | 5.235 Mbytes
Step Lx 
       0        271.5 
       1        271.5 
Loop time of 0.307104 on 32 procs for 1 steps with 193600 atoms

95.7% CPU use with 32 MPI tasks x no OpenMP threads

Minimization stats:
  Stopping criterion = force tolerance
  Energy initial, next-to-last, final = 
        -1093340.09449     -1093340.09449     -1093340.09449
  Force two-norm initial, final = 1.04727e-10 1.04653e-10
  Force max component initial, final = 6.09651e-13 6.11811e-13
  Final line search alpha, max atom move = 1 6.11811e-13
  Iterations, force evaluations = 1 2

MPI task timing breakdown:
Section |  min time  |  avg time  |  max time  |%varavg| %total
---------------------------------------------------------------
Pair    | 0.28597    | 0.28748    | 0.29053    |   0.2 | 93.61
Neigh   | 0          | 0          | 0          |   0.0 |  0.00
Comm    | 0.00642    | 0.011505   | 0.016388   |   2.4 |  3.75
Output  | 0          | 0          | 0          |   0.0 |  0.00
Modify  | 0          | 0          | 0          |   0.0 |  0.00
Other   |            | 0.00812    |            |       |  2.64

Nlocal:    6050 ave 6050 max 6050 min
Histogram: 32 0 0 0 0 0 0 0 0 0
Nghost:    5892.5 ave 5893 max 5892 min
Histogram: 16 0 0 0 0 0 0 0 0 16
Neighs:    0 ave 0 max 0 min
Histogram: 32 0 0 0 0 0 0 0 0 0
FullNghs:  278300 ave 278300 max 278300 min
Histogram: 32 0 0 0 0 0 0 0 0 0

Total # of neighbors = 8905600
Ave neighs/atom = 46
Neighbor list builds = 0
Dangerous builds = 0
timestep     ${dt}
timestep     0.0005
velocity 	all create $T 492845
velocity 	all create 300 492845


fix 		NPT all npt temp $T $T ${tdamp} iso 0.0 0.0 ${pdamp}
fix 		NPT all npt temp 300 $T ${tdamp} iso 0.0 0.0 ${pdamp}
fix 		NPT all npt temp 300 300 ${tdamp} iso 0.0 0.0 ${pdamp}
fix 		NPT all npt temp 300 300 0.05 iso 0.0 0.0 ${pdamp}
fix 		NPT all npt temp 300 300 0.05 iso 0.0 0.0 0.5
thermo		100
thermo_style custom step lx press
run		${tnpt}
run		5000
Per MPI rank memory allocation (min/avg/max) = 4.11 | 4.11 | 4.11 Mbytes
Step Lx Press 
       1        271.5    81092.695 
     100    275.46317     29660.38 
     200    277.46454    9077.4375 
     300    278.21258    844.22691 
     400    278.31703    1.9464104 
     500    278.31301    37.683658 
     600    278.32403    52.032914 
     700    278.32772    2.3021118 
     800    278.34667   -77.498379 
     900    278.34143    51.768795 
    1000    278.34637    58.946491 
    1100    278.35422   -24.436414 
    1200     278.3587    -23.84794 
    1300     278.3598   -10.682002 
    1400    278.36036    32.033603 
    1500    278.36254     25.12963 
    1600    278.35632     57.22496 
    1700    278.36689   -74.488275 
    1800    278.36318   -10.127171 
    1900    278.36051    16.837861 
    2000    278.36268    3.6297536 
    2100    278.36469   -10.083753 
    2200    278.35929    36.580011 
    2300    278.36429   -5.7946752 
    2400    278.36169    2.5596281 
    2500    278.36874   -35.208423 
    2600    278.35291    2.0827744 
    2700    278.37166   -68.682126 
    2800    278.36004    56.807181 
    2900    278.35462    49.139011 
    3000    278.37848   -88.495855 
    3100     278.3424     122.8563 
    3200    278.38618   -139.51719 
    3300    278.33408    205.25608 
    3400    278.39682   -297.35999 
    3500    278.33107    303.69573 
    3600    278.38881   -281.60876 
    3700    278.34986    203.87859 
    3800    278.36583   -60.329795 
    3900    278.37171   -59.092605 
    4000    278.35354    118.21681 
    4100    278.36666   -31.710755 
    4200    278.36932   -65.611659 
    4300    278.35585    72.432851 
    4400    278.37305   -79.293948 
    4500    278.35468    113.31088 
    4600    278.36934   -57.732763 
    4700    278.36163    27.258938 
    4800    278.36518   -17.031469 
    4900    278.36773   -17.656797 
    5000    278.36397    31.015678 
    5001    278.36391    31.063819 
Loop time of 373.624 on 32 procs for 5000 steps with 193600 atoms

Performance: 0.578 ns/day, 41.514 hours/ns, 13.382 timesteps/s
91.4% CPU use with 32 MPI tasks x no OpenMP threads

MPI task timing breakdown:
Section |  min time  |  avg time  |  max time  |%varavg| %total
---------------------------------------------------------------
Pair    | 317.1      | 321.4      | 325.01     |  12.2 | 86.02
Neigh   | 0.11508    | 0.11697    | 0.1209     |   0.3 |  0.03
Comm    | 22.349     | 31.238     | 38.874     |  83.3 |  8.36
Output  | 0.024988   | 0.029573   | 0.033962   |   1.8 |  0.01
Modify  | 12.385     | 19.857     | 27.067     | 120.1 |  5.31
Other   |            | 0.9809     |            |       |  0.26

Nlocal:    6050 ave 6091 max 5999 min
Histogram: 2 3 1 2 4 5 6 4 2 3
Nghost:    5892.5 ave 5943 max 5852 min
Histogram: 4 2 3 6 5 4 1 1 4 2
Neighs:    0 ave 0 max 0 min
Histogram: 32 0 0 0 0 0 0 0 0 0
FullNghs:  213269 ave 214807 max 211355 min
Histogram: 2 4 1 1 3 7 5 1 3 5

Total # of neighbors = 6824610
Ave neighs/atom = 35.2511
Neighbor list builds = 8
Dangerous builds = 0
unfix		NPT
variable	length equal lx/${LC}
variable	length equal lx/5.43

################### Geometrical Parameters After Relaxation ###############################
# Thermostat_width
variable	TW equal ${length}/40
variable	TW equal 51.264072527672/40
# Hot_Start
variable	hs equal ${length}/4-${TW}
variable	hs equal 51.264072527672/4-${TW}
variable	hs equal 51.264072527672/4-1.2816018131918
# Hot_End
variable	he equal ${length}/4+${TW}
variable	he equal 51.264072527672/4+${TW}
variable	he equal 51.264072527672/4+1.2816018131918
# Cold_Start
variable	cs equal 3*${length}/4-${TW}
variable	cs equal 3*51.264072527672/4-${TW}
variable	cs equal 3*51.264072527672/4-1.2816018131918
# Cold_End
variable	ce equal 3*${length}/4+${TW}
variable	ce equal 3*51.264072527672/4+${TW}
variable	ce equal 3*51.264072527672/4+1.2816018131918
###########################################################################################

################### Defining Thermostat ###################################################
region 		hot block ${hs} ${he} EDGE EDGE EDGE EDGE
region 		hot block 11.5344163187262 ${he} EDGE EDGE EDGE EDGE
region 		hot block 11.5344163187262 14.0976199451098 EDGE EDGE EDGE EDGE
region 		cold block ${cs} ${ce} EDGE EDGE EDGE EDGE
region 		cold block 37.1664525825622 ${ce} EDGE EDGE EDGE EDGE
region 		cold block 37.1664525825622 39.7296562089458 EDGE EDGE EDGE EDGE
group		test region cold
9584 atoms in group test
group		test1 region hot
9570 atoms in group test1
compute		Thot all temp/region hot
compute         Tcold all temp/region cold
###########################################################################################

fix		NVT all nvt temp $T $T ${tdamp}
fix		NVT all nvt temp 300 $T ${tdamp}
fix		NVT all nvt temp 300 300 ${tdamp}
fix		NVT all nvt temp 300 300 0.05
thermo		1000
thermo_style	custom step temp
run		${tnvt}
run		40000
Per MPI rank memory allocation (min/avg/max) = 4.114 | 4.116 | 4.117 Mbytes
Step Temp 
    5001    301.65108 
    6000    302.42691 
    7000    298.85612 
    8000    302.60528 
    9000    299.75992 
   10000    299.21652 
   11000     299.4469 
   12000    300.91857 
   13000    300.27052 
   14000    299.26706 
   15000    301.28298 
   16000    300.59142 
   17000    299.76399 
   18000    299.17803 
   19000    301.10966 
   20000    300.26648 
   21000    300.65168 
   22000    299.38627 
   23000    299.66792 
   24000     300.2191 
   25000    300.07012 
   26000    300.08105 
   27000    299.38342 
   28000    299.99586 
   29000    300.37848 
   30000     299.9303 
   31000    299.85492 
   32000    299.27348 
   33000    300.95507 
   34000    300.07411 
   35000    300.67789 
   36000    300.28923 
   37000    299.24146 
   38000    299.66574 
   39000    298.88163 
   40000    299.98528 
   41000    300.27973 
   42000    300.64832 
   43000    299.93699 
   44000    299.49972 
   45000    300.77144 
   45001    300.79724 
Loop time of 2873.35 on 32 procs for 40000 steps with 193600 atoms

Performance: 0.601 ns/day, 39.908 hours/ns, 13.921 timesteps/s
91.7% CPU use with 32 MPI tasks x no OpenMP threads

MPI task timing breakdown:
Section |  min time  |  avg time  |  max time  |%varavg| %total
---------------------------------------------------------------
Pair    | 2467.9     | 2491.2     | 2515.9     |  24.7 | 86.70
Neigh   | 0          | 0          | 0          |   0.0 |  0.00
Comm    | 169.92     | 245.51     | 304.44     | 246.7 |  8.54
Output  | 0.021394   | 0.024336   | 0.027731   |   1.3 |  0.00
Modify  | 72.364     | 122.74     | 180.25     | 319.0 |  4.27
Other   |            | 13.84      |            |       |  0.48

Nlocal:    6050 ave 6097 max 5991 min
Histogram: 2 2 2 3 1 9 2 4 6 1
Nghost:    5892.5 ave 5952 max 5846 min
Histogram: 2 5 4 2 9 1 3 2 2 2
Neighs:    0 ave 0 max 0 min
Histogram: 32 0 0 0 0 0 0 0 0 0
FullNghs:  216216 ave 218068 max 213612 min
Histogram: 2 0 3 3 3 3 8 2 4 4

Total # of neighbors = 6918900
Ave neighs/atom = 35.7381
Neighbor list builds = 0
Dangerous builds = 0
velocity	all scale $T
velocity	all scale 300
unfix		NVT

fix		NVE all nve
fix		hot all langevin ${thi} ${thi} ${tdamp} 389516 tally yes
fix		hot all langevin 319.9225 ${thi} ${tdamp} 389516 tally yes
fix		hot all langevin 319.9225 319.9225 ${tdamp} 389516 tally yes
fix		hot all langevin 319.9225 319.9225 0.05 389516 tally yes
fix_modify	hot temp Thot
fix		cold all langevin ${tlo} ${tlo} ${tdamp} 46579 tally yes
fix		cold all langevin 280.0775 ${tlo} ${tdamp} 46579 tally yes
fix		cold all langevin 280.0775 280.0775 ${tdamp} 46579 tally yes
fix		cold all langevin 280.0775 280.0775 0.05 46579 tally yes
fix_modify	cold temp Tcold

thermo_style	custom step temp c_Thot c_Tcold f_hot f_cold
run		${t1nve}
run		100000
Per MPI rank memory allocation (min/avg/max) = 4.864 | 4.866 | 4.867 Mbytes
Step Temp c_Thot c_Tcold f_hot f_cold 
   45001          300    298.81791    301.67457           -0           -0 
   46000    300.06982    315.74354    281.22888   -69.935215    83.383455 
   47000    299.95642    320.35183    278.67595   -95.619822     113.4251 
   48000    299.09003    316.00058    283.79203   -123.47082    127.50045 
   49000    299.84418    315.94357     282.0863    -140.6044    157.19093 
   50000    300.16867    317.39385    281.95348   -168.71538    183.63218 
   51000    300.30029    320.34155    282.12324   -191.51354    207.87697 
   52000    299.73074    318.65403    282.85317   -219.83317    236.74737 
   53000     300.3309    317.54347    281.92251   -236.68967    262.67356 
   54000    299.71847    317.85546    282.47041   -272.80379    299.32189 
   55000    299.88032    317.56237     285.6491   -298.57527    322.81692 
   56000    300.10097    317.04326    283.87069   -326.76641    365.62556 
   57000    300.05378    316.35853    283.30203   -368.52231    394.53287 
   58000    299.79193     320.0726    280.93945   -403.67616    430.52381 
   59000    299.29687    318.86029    283.71946   -442.66616    458.06799 
   60000    299.95602    323.41926    283.53967   -468.94811    491.95319 
   61000     299.0779    320.40688    281.69197   -508.70421     521.3578 
   62000    299.76737    316.33983    281.56869   -532.92138    563.57491 
   63000    300.23851    324.01679    280.29917   -578.47686    595.93013 
   64000    300.30128    318.14632    282.04364   -597.66559    629.75352 
   65000    300.20576    320.24879    284.27872    -645.1557    650.32737 
   66000    299.86891     317.8158    279.88585   -676.30337    697.47393 
   67000    299.87455    314.91859    288.26029   -703.28553    724.14738 
   68000    299.93201    320.41985    279.55611   -749.83451    763.25308 
   69000    299.73316    313.33674    279.88948   -778.33404    796.19285 
   70000    300.15413    318.93923    286.57401    -815.6718    815.37923 
   71000    299.61303      318.239    280.09803    -847.4402    858.76074 
   72000    300.08391    318.81807    282.79759   -890.94792    883.37152 
   73000    300.94535    319.20244    285.80684   -909.48514    914.17529 
   74000    299.55204    317.33474    283.28205   -956.23356    948.68033 
   75000    300.11688    320.49225    283.06571   -991.93188    985.11351 
   76000    299.81085    320.05827    277.33301   -1022.0957    1022.3125 
   77000    299.90183    316.86098    281.73499   -1057.1668    1050.7908 
   78000    300.41923    316.50619    280.31604   -1094.8574      1090.71 
   79000    300.37794     316.1995    279.34006   -1136.7263    1124.5773 
   80000    300.98262    317.21111    288.42768   -1162.7263    1143.7792 
   81000    300.73741    322.78704    277.52754    -1200.323    1194.3673 
   82000    300.15774    317.30707    280.79712   -1237.1892    1215.2748 
   83000    300.22324    319.49934    284.22369   -1273.0695     1259.551 
   84000    299.46198    317.69182    281.72428   -1308.4828    1293.7171 
   85000    300.74283    322.81384    278.64941   -1347.7746     1343.454 
   86000    300.06928    317.15585    279.84197   -1375.5752    1372.9664 
   87000    300.58583    322.22122    278.32179   -1423.5901    1407.9753 
   88000    300.60721    319.89601    284.69129   -1454.0867    1441.4093 
   89000    300.69026    324.57888    277.29725   -1495.3192    1488.8266 
   90000       299.91    320.04693    282.96976   -1533.1082    1520.1198 
   91000       300.18    322.71573    282.32196   -1572.6325    1556.0185 
   92000     300.1823    318.00823    282.16987   -1589.5559    1589.8302 
   93000    300.37224    321.17688    283.95769   -1623.0858    1636.0242 
   94000    300.48031    317.58726    283.92734    -1646.532    1671.1105 
   95000    298.64869    312.20537    276.19193   -1675.0459    1720.3675 
   96000    299.12238     317.4621    276.92923   -1712.4155    1756.4347 
   97000    299.60928     318.8274    281.63005   -1760.0487    1779.2705 
   98000    300.21986    316.55364    283.68315   -1792.9095    1818.4439 
   99000    300.24221    319.16432    283.06086   -1829.6534    1847.8082 
  100000     300.4855    322.33822    278.56492   -1873.7399    1881.8338 
  101000    299.64702    317.78079    279.28545   -1903.7383    1932.4096 
  102000    300.23702    323.09874    283.41115   -1943.7666    1947.3458 
  103000    300.14792    320.52536    281.93509   -1968.2876    1985.6656 
  104000    299.83497     320.6713    278.09793   -2002.9203    2026.3376 
  105000     299.8836    319.08106    280.16876   -2035.4177    2062.6117 
  106000    299.41628     319.0132    279.98235   -2071.2148    2092.7654 
  107000    300.68045    317.83958    281.61102   -2110.5088    2118.5881 
  108000    299.35729    316.97899    280.56845   -2149.3162    2158.6336 
  109000    300.30747    316.87339    282.83348   -2191.4153    2199.1533 
  110000     300.4175    317.62769     283.1038   -2226.5411       2225.4 
  111000    299.95781     320.7008    282.69929    -2260.262    2254.5847 
  112000    299.84606    318.32159    282.16093   -2292.3787    2293.2327 
  113000    300.06283    317.76462    283.46812   -2320.7789    2329.4469 
  114000    299.92385    317.12923    283.17105   -2351.5135    2372.5851 
  115000    299.83455    319.27445    285.02859   -2385.8181    2405.1671 
  116000    299.73942    319.92615    284.40691   -2429.4526    2443.1106 
  117000    299.76298    316.91429    280.66144    -2451.493    2471.2767 
  118000    300.15648     318.7134     279.3393   -2506.1657    2506.0114 
  119000    300.35404    318.79303    284.98571   -2538.8775    2528.8056 
  120000    300.11865    317.73405    282.82187   -2547.2248    2561.1765 
  121000    299.46175    315.33101    281.41741   -2595.3207    2592.6903 
  122000    300.62845    319.92201    284.65551   -2645.4749    2617.0001 
  123000    301.03465     312.9431    283.41071   -2671.5336    2658.9757 
  124000    301.39744    323.88994    278.78306   -2724.1783    2696.9131 
  125000    300.49803     320.1812    284.44967   -2751.2394    2727.8419 
  126000    300.59189    319.48311    280.92503   -2785.9747    2768.1273 
  127000    300.29777    317.75892    281.56139   -2813.4133    2806.3177 
  128000     300.7758    319.78173    280.84528    -2854.416    2830.4774 
  129000    300.94105    322.95097      283.851   -2896.5282    2864.0183 
  130000    301.44074    317.60862    283.15606   -2923.2184    2902.8559 
  131000    301.49766     319.0415    277.41902   -2957.2913    2935.5336 
  132000    301.03153    323.93874    280.95007   -2994.4517    2979.9113 
  133000    300.75119    319.10951    280.43715   -3023.3069    3016.8448 
  134000    299.77681    315.09792    283.25968   -3040.7387     3044.326 
  135000    299.73707    317.29176    278.08474   -3077.8214    3084.1264 
  136000     301.2504    318.16999    283.25802   -3120.8916    3113.9957 
  137000    300.07187    315.37426    281.23447   -3140.3673    3145.5599 
  138000    300.39064    318.26098    279.42176   -3185.1192    3179.0038 
  139000    300.12426    320.54996    280.68481   -3223.0097    3220.6343 
  140000    300.36793    319.47926    284.88627   -3258.1515    3249.3901 
  141000    300.08676    317.66447    282.84999   -3286.9109    3277.1589 
  142000    300.79866    318.71889    279.71918   -3317.3158    3308.2576 
  143000    300.12028    316.00607    281.43402   -3329.2617    3349.5355 
  144000    300.27556     316.6633    281.61918   -3370.5025    3376.2916 
  145000    300.29178     315.8872    285.54545   -3395.0163    3401.7414 
  145001    300.27926    315.72468    285.32932   -3395.1539    3401.9579 
Loop time of 7318.59 on 32 procs for 100000 steps with 193600 atoms

Performance: 0.590 ns/day, 40.659 hours/ns, 13.664 timesteps/s
91.7% CPU use with 32 MPI tasks x no OpenMP threads

MPI task timing breakdown:
Section |  min time  |  avg time  |  max time  |%varavg| %total
---------------------------------------------------------------
Pair    | 6163.2     | 6242.3     | 6334.2     |  52.8 | 85.29
Neigh   | 0          | 0          | 0          |   0.0 |  0.00
Comm    | 461.07     | 627.83     | 772.97     | 348.3 |  8.58
Output  | 0.097524   | 0.10119    | 0.10367    |   0.5 |  0.00
Modify  | 311.9      | 424.71     | 560.72     | 419.6 |  5.80
Other   |            | 23.64      |            |       |  0.32

Nlocal:    6050 ave 6089 max 5995 min
Histogram: 2 0 3 1 0 10 5 6 3 2
Nghost:    5892.5 ave 5947 max 5854 min
Histogram: 2 3 6 5 7 3 1 3 0 2
Neighs:    0 ave 0 max 0 min
Histogram: 32 0 0 0 0 0 0 0 0 0
FullNghs:  216151 ave 217673 max 214018 min
Histogram: 2 1 2 1 2 7 7 5 2 3

Total # of neighbors = 6916820
Ave neighs/atom = 35.7274
Neighbor list builds = 0
Dangerous builds = 0

# thermal conductivity calculation
# reset langevin thermostats to zero energy accumulation
reset_timestep 0
thermo		$c
thermo		500000
compute		ke all ke/atom
variable	temp atom c_ke/1.5/8.617332478e-5
fix		hot all langevin ${thi} ${thi} ${tdamp} 389516 tally yes
fix		hot all langevin 319.9225 ${thi} ${tdamp} 389516 tally yes
fix		hot all langevin 319.9225 319.9225 ${tdamp} 389516 tally yes
fix		hot all langevin 319.9225 319.9225 0.05 389516 tally yes
fix_modify	hot temp Thot
fix		cold all langevin ${tlo} ${tlo} ${tdamp} 46579 tally yes
fix		cold all langevin 280.0775 ${tlo} ${tdamp} 46579 tally yes
fix		cold all langevin 280.0775 280.0775 ${tdamp} 46579 tally yes
fix		cold all langevin 280.0775 280.0775 0.05 46579 tally yes
fix_modify	cold temp Tcold

compute		ch all chunk/atom bin/1d x lower 0.02 units reduced
fix		11 all ave/chunk $a $b $c ch v_temp file sw_${P}.langevin
fix		11 all ave/chunk 100 $b $c ch v_temp file sw_${P}.langevin
fix		11 all ave/chunk 100 5000 $c ch v_temp file sw_${P}.langevin
fix		11 all ave/chunk 100 5000 500000 ch v_temp file sw_${P}.langevin
fix		11 all ave/chunk 100 5000 500000 ch v_temp file sw_22.langevin
thermo_style	custom step temp c_Thot c_Tcold f_hot f_cold

run		${t2nve}
run		500000
Per MPI rank memory allocation (min/avg/max) = 5.115 | 5.117 | 5.117 Mbytes
Step Temp c_Thot c_Tcold f_hot f_cold 
       0    300.27926    315.63674    285.37689           -0           -0 
  500000    299.40262    320.01426    280.08851   -17140.406    17157.193 
Loop time of 36603 on 32 procs for 500000 steps with 193600 atoms

Performance: 0.590 ns/day, 40.670 hours/ns, 13.660 timesteps/s
91.6% CPU use with 32 MPI tasks x no OpenMP threads

MPI task timing breakdown:
Section |  min time  |  avg time  |  max time  |%varavg| %total
---------------------------------------------------------------
Pair    | 30798      | 31214      | 31624      | 123.0 | 85.28
Neigh   | 0          | 0          | 0          |   0.0 |  0.00
Comm    | 2238.1     | 3128.6     | 3917.4     | 878.4 |  8.55
Output  | 0.000894   | 0.0015929  | 0.001719   |   0.4 |  0.00
Modify  | 1503.7     | 2143.6     | 2856.9     | 939.8 |  5.86
Other   |            | 117.1      |            |       |  0.32

Nlocal:    6050 ave 6102 max 5986 min
Histogram: 1 0 2 3 6 8 6 2 1 3
Nghost:    5892.5 ave 5956 max 5840 min
Histogram: 3 1 2 6 7 7 3 2 0 1
Neighs:    0 ave 0 max 0 min
Histogram: 32 0 0 0 0 0 0 0 0 0
FullNghs:  216035 ave 218290 max 213614 min
Histogram: 1 0 3 4 8 9 2 2 0 3

Total # of neighbors = 6913132
Ave neighs/atom = 35.7083
Neighbor list builds = 0
Dangerous builds = 0
clear
next		P
jump		Si.in
 units       metal
#----------------------------- User Input Variables --------------------------------------
################### Geometrical Parameters ###############################
variable	P index 21 22 23 24
variable	W equal 22
# Lattice Constant
variable	LC equal 5.43
# Length
variable	L equal 50
# Width
#variable	W equal 6
# Height
variable	H equal ${W}
variable	H equal 22
################### Simulation Condition ###############################
#DT/DX=cte
variable	cte equal 1.5938
log         sw_${P}.log
log         sw_23.log
