# temperature
variable	T equal 300
#cold region temperature
#variable        tlo equal 275
variable        tlo equal ${T}-${L}*${cte}/4.0
variable        tlo equal 300-${L}*${cte}/4.0
variable        tlo equal 300-50*${cte}/4.0
variable        tlo equal 300-50*1.5938/4.0
#hot region temperature
#variable        thi equal ${cte}*${L}/2+${tlo}
variable        thi equal ${T}+${L}*${cte}/4.0
variable        thi equal 300+${L}*${cte}/4.0
variable        thi equal 300+50*${cte}/4.0
variable        thi equal 300+50*1.5938/4.0

#time step (picoseconds)
variable	dt equal 0.0005 # 0.5 femtoseconds
#number of time steps for NPT
variable	tnpt equal 5000
#number of time steps for NVT
variable	tnvt equal 40000
#number of time steps for first NVE
variable	t1nve equal 100000
#number of time steps for second NVE
variable	t2nve equal 500000

################### Variable Based on LAMMPS Documentation ######################
variable	a equal 100
variable	c equal ${t2nve}
variable	c equal 500000
variable	b equal $c/$a
variable	b equal 500000/$a
variable	b equal 500000/100
variable	tdamp equal ${dt}*100
variable	tdamp equal 0.0005*100
variable	pdamp equal ${dt}*1000
variable	pdamp equal 0.0005*1000

#----------------------------------------------------------------------------------------
# setup problem
dimension       3
boundary        p p p
atom_style      atomic
lattice 	diamond ${LC} origin 0.0 0.0 0.0 orient x 1 0 0 orient y 0 1 0 orient z 0 0 1
lattice 	diamond 5.43 origin 0.0 0.0 0.0 orient x 1 0 0 orient y 0 1 0 orient z 0 0 1
Lattice spacing in x,y,z = 5.43 5.43 5.43
region          0 block 0 $L 0 $W 0 $H units lattice side in
region          0 block 0 50 0 $W 0 $H units lattice side in
region          0 block 0 50 0 22 0 $H units lattice side in
region          0 block 0 50 0 22 0 22 units lattice side in
create_box      1 0
Created orthogonal box = (0 0 0) to (271.5 119.46 119.46)
  8 by 2 by 2 MPI processor grid
create_atoms    1 region 0
Created 193600 atoms
mass		1 28.0855
#dump		1 all xyz 1000 Si_W_${W}nm.xyz
#dump_modify	1 element Si

############################################
pair_style   sw
pair_coeff   * * Si${P}.sw Si
pair_coeff   * * Si34.sw Si
thermo		100
thermo_style custom step lx
min_style cg
minimize 0.0 1.0e-8 10000 100000
WARNING: Using 'neigh_modify every 1 delay 0 check yes' setting during minimization (../min.cpp:168)
Neighbor list info ...
  update every 1 steps, delay 0 steps, check yes
  max neighbors/atom: 2000, page size: 100000
  master list distance cutoff = 6.11326
  ghost atom cutoff = 6.11326
  binsize = 3.05663, bins = 89 40 40
  1 neighbor lists, perpetual/occasional/extra = 1 0 0
  (1) pair sw, perpetual
      attributes: full, newton on
      pair build: full/bin/atomonly
      stencil: full/bin/3d
      bin: standard
Per MPI rank memory allocation (min/avg/max) = 5.233 | 5.233 | 5.233 Mbytes
Step Lx 
       0        271.5 
       1        271.5 
Loop time of 0.307733 on 32 procs for 1 steps with 193600 atoms

95.7% CPU use with 32 MPI tasks x no OpenMP threads

Minimization stats:
  Stopping criterion = force tolerance
  Energy initial, next-to-last, final = 
        -1077606.07039     -1077606.07039     -1077606.07039
  Force two-norm initial, final = 8.66959e-11 8.66847e-11
  Force max component initial, final = 3.96516e-13 4.01679e-13
  Final line search alpha, max atom move = 1 4.01679e-13
  Iterations, force evaluations = 1 2

MPI task timing breakdown:
Section |  min time  |  avg time  |  max time  |%varavg| %total
---------------------------------------------------------------
Pair    | 0.28496    | 0.28794    | 0.29207    |   0.3 | 93.57
Neigh   | 0          | 0          | 0          |   0.0 |  0.00
Comm    | 0.006204   | 0.01197    | 0.016326   |   2.3 |  3.89
Output  | 0          | 0          | 0          |   0.0 |  0.00
Modify  | 0          | 0          | 0          |   0.0 |  0.00
Other   |            | 0.007827   |            |       |  2.54

Nlocal:    6050 ave 6050 max 6050 min
Histogram: 32 0 0 0 0 0 0 0 0 0
Nghost:    5892.5 ave 5893 max 5892 min
Histogram: 16 0 0 0 0 0 0 0 0 16
Neighs:    0 ave 0 max 0 min
Histogram: 32 0 0 0 0 0 0 0 0 0
FullNghs:  278300 ave 278300 max 278300 min
Histogram: 32 0 0 0 0 0 0 0 0 0

Total # of neighbors = 8905600
Ave neighs/atom = 46
Neighbor list builds = 0
Dangerous builds = 0
timestep     ${dt}
timestep     0.0005
velocity 	all create $T 492845
velocity 	all create 300 492845


fix 		NPT all npt temp $T $T ${tdamp} iso 0.0 0.0 ${pdamp}
fix 		NPT all npt temp 300 $T ${tdamp} iso 0.0 0.0 ${pdamp}
fix 		NPT all npt temp 300 300 ${tdamp} iso 0.0 0.0 ${pdamp}
fix 		NPT all npt temp 300 300 0.05 iso 0.0 0.0 ${pdamp}
fix 		NPT all npt temp 300 300 0.05 iso 0.0 0.0 0.5
thermo		100
thermo_style custom step lx press
run		${tnpt}
run		5000
Per MPI rank memory allocation (min/avg/max) = 4.108 | 4.108 | 4.108 Mbytes
Step Lx Press 
       1        271.5    40976.764 
     100    274.85163    24648.529 
     200    277.12963    19683.333 
     300     279.0589     10329.53 
     400     280.2574    4687.0942 
     500    280.91159    1170.5807 
     600    281.05172   -41.599384 
     700    281.01388    5.4945818 
     800    280.97076   -196.13101 
     900    280.88578    302.82911 
    1000    280.88436   -159.92982 
    1100    280.85545   -74.596727 
    1200    280.84866     40.42136 
    1300    280.84697    89.151829 
    1400    280.89597    32.576224 
    1500    280.91723    83.806337 
    1600    280.94437    23.166539 
    1700     280.9327    28.006846 
    1800    280.93298   -32.544368 
    1900    280.93166   -27.991575 
    2000    280.93536    68.312925 
    2100    280.95287    19.702565 
    2200    280.97795    34.798094 
    2300     280.9844    39.129283 
    2400     280.9931   -37.016322 
    2500    280.97869    75.058227 
    2600    280.99223   -33.310763 
    2700    280.99589    29.046951 
    2800    281.01081   -17.780882 
    2900    281.01621    39.657885 
    3000    281.03993    55.887579 
    3100    281.05025    -98.86386 
    3200    281.00815    111.99008 
    3300    281.04492   -75.361089 
    3400    281.02182    59.631853 
    3500    281.05269    -56.53689 
    3600    281.03591    123.55588 
    3700    281.07285   -80.901497 
    3800    281.04624    66.966036 
    3900    281.06625   -53.649022 
    4000    281.05294    25.800557 
    4100    281.06889   -1.6752474 
    4200    281.07097    25.576704 
    4300    281.08104   -4.0293764 
    4400    281.08637    23.162471 
    4500    281.09284     -34.1841 
    4600    281.08274    68.689794 
    4700    281.09758   -41.832124 
    4800    281.09069   -8.5724487 
    4900    281.09294    25.833499 
    5000    281.11031   -30.292161 
    5001    281.11039   -29.990884 
Loop time of 504.958 on 32 procs for 5000 steps with 193600 atoms

Performance: 0.428 ns/day, 56.106 hours/ns, 9.902 timesteps/s
91.9% CPU use with 32 MPI tasks x no OpenMP threads

MPI task timing breakdown:
Section |  min time  |  avg time  |  max time  |%varavg| %total
---------------------------------------------------------------
Pair    | 436.06     | 441.54     | 447.68     |  15.8 | 87.44
Neigh   | 0.19776    | 0.20216    | 0.21709    |   1.0 |  0.04
Comm    | 24.507     | 38.017     | 50.973     | 100.7 |  7.53
Output  | 0.028776   | 0.034854   | 0.037833   |   1.5 |  0.01
Modify  | 12.76      | 24.134     | 36.55      | 144.4 |  4.78
Other   |            | 1.032      |            |       |  0.20

Nlocal:    6050 ave 6122 max 6003 min
Histogram: 2 6 4 7 3 4 3 0 2 1
Nghost:    5892.5 ave 5939 max 5821 min
Histogram: 1 2 0 3 4 3 7 4 6 2
Neighs:    0 ave 0 max 0 min
Histogram: 32 0 0 0 0 0 0 0 0 0
FullNghs:  237577 ave 241316 max 234813 min
Histogram: 1 4 3 7 7 3 4 1 1 1

Total # of neighbors = 7602470
Ave neighs/atom = 39.269
Neighbor list builds = 13
Dangerous builds = 0
unfix		NPT
variable	length equal lx/${LC}
variable	length equal lx/5.43

################### Geometrical Parameters After Relaxation ###############################
# Thermostat_width
variable	TW equal ${length}/40
variable	TW equal 51.7698689794481/40
# Hot_Start
variable	hs equal ${length}/4-${TW}
variable	hs equal 51.7698689794481/4-${TW}
variable	hs equal 51.7698689794481/4-1.2942467244862
# Hot_End
variable	he equal ${length}/4+${TW}
variable	he equal 51.7698689794481/4+${TW}
variable	he equal 51.7698689794481/4+1.2942467244862
# Cold_Start
variable	cs equal 3*${length}/4-${TW}
variable	cs equal 3*51.7698689794481/4-${TW}
variable	cs equal 3*51.7698689794481/4-1.2942467244862
# Cold_End
variable	ce equal 3*${length}/4+${TW}
variable	ce equal 3*51.7698689794481/4+${TW}
variable	ce equal 3*51.7698689794481/4+1.2942467244862
###########################################################################################

################### Defining Thermostat ###################################################
region 		hot block ${hs} ${he} EDGE EDGE EDGE EDGE
region 		hot block 11.6482205203758 ${he} EDGE EDGE EDGE EDGE
region 		hot block 11.6482205203758 14.2367139693482 EDGE EDGE EDGE EDGE
region 		cold block ${cs} ${ce} EDGE EDGE EDGE EDGE
region 		cold block 37.5331550100999 ${ce} EDGE EDGE EDGE EDGE
region 		cold block 37.5331550100999 40.1216484590723 EDGE EDGE EDGE EDGE
group		test region cold
9580 atoms in group test
group		test1 region hot
9563 atoms in group test1
compute		Thot all temp/region hot
compute         Tcold all temp/region cold
###########################################################################################

fix		NVT all nvt temp $T $T ${tdamp}
fix		NVT all nvt temp 300 $T ${tdamp}
fix		NVT all nvt temp 300 300 ${tdamp}
fix		NVT all nvt temp 300 300 0.05
thermo		1000
thermo_style	custom step temp
run		${tnvt}
run		40000
Per MPI rank memory allocation (min/avg/max) = 4.114 | 4.115 | 4.117 Mbytes
Step Temp 
    5001    299.62702 
    6000    300.27387 
    7000    300.88502 
    8000    300.47997 
    9000    299.82949 
   10000    299.45997 
   11000    300.13921 
   12000     298.7129 
   13000    300.64285 
   14000    300.27397 
   15000    299.96445 
   16000    299.51109 
   17000    299.63028 
   18000    299.96732 
   19000    299.34097 
   20000    300.88182 
   21000    299.67011 
   22000    299.75432 
   23000    299.46054 
   24000    300.28868 
   25000    298.70315 
   26000    299.12242 
   27000    299.35171 
   28000    300.65369 
   29000    299.00013 
   30000    300.15826 
   31000    300.41782 
   32000    300.04748 
   33000    299.76398 
   34000    300.02026 
   35000    300.39872 
   36000    299.81834 
   37000    300.11274 
   38000    299.14814 
   39000    299.32687 
   40000    301.18914 
   41000    299.46081 
   42000    299.82654 
   43000    300.86516 
   44000    298.15365 
   45000    299.85933 
   45001    299.86052 
Loop time of 4033.43 on 32 procs for 40000 steps with 193600 atoms

Performance: 0.428 ns/day, 56.020 hours/ns, 9.917 timesteps/s
91.9% CPU use with 32 MPI tasks x no OpenMP threads

MPI task timing breakdown:
Section |  min time  |  avg time  |  max time  |%varavg| %total
---------------------------------------------------------------
Pair    | 3504.7     | 3533.8     | 3584.1     |  31.3 | 87.61
Neigh   | 0          | 0          | 0          |   0.0 |  0.00
Comm    | 219.24     | 313.09     | 378.54     | 226.1 |  7.76
Output  | 0.021785   | 0.024772   | 0.026322   |   0.9 |  0.00
Modify  | 105.1      | 172.41     | 241.42     | 331.9 |  4.27
Other   |            | 14.08      |            |       |  0.35

Nlocal:    6050 ave 6101 max 5989 min
Histogram: 1 0 3 4 8 4 4 0 7 1
Nghost:    5892.5 ave 5954 max 5842 min
Histogram: 1 7 0 4 4 9 3 3 0 1
Neighs:    0 ave 0 max 0 min
Histogram: 32 0 0 0 0 0 0 0 0 0
FullNghs:  236804 ave 239214 max 233903 min
Histogram: 1 0 4 2 9 5 1 2 7 1

Total # of neighbors = 7577716
Ave neighs/atom = 39.1411
Neighbor list builds = 0
Dangerous builds = 0
velocity	all scale $T
velocity	all scale 300
unfix		NVT

fix		NVE all nve
fix		hot all langevin ${thi} ${thi} ${tdamp} 389516 tally yes
fix		hot all langevin 319.9225 ${thi} ${tdamp} 389516 tally yes
fix		hot all langevin 319.9225 319.9225 ${tdamp} 389516 tally yes
fix		hot all langevin 319.9225 319.9225 0.05 389516 tally yes
fix_modify	hot temp Thot
fix		cold all langevin ${tlo} ${tlo} ${tdamp} 46579 tally yes
fix		cold all langevin 280.0775 ${tlo} ${tdamp} 46579 tally yes
fix		cold all langevin 280.0775 280.0775 ${tdamp} 46579 tally yes
fix		cold all langevin 280.0775 280.0775 0.05 46579 tally yes
fix_modify	cold temp Tcold

thermo_style	custom step temp c_Thot c_Tcold f_hot f_cold
run		${t1nve}
run		100000
Per MPI rank memory allocation (min/avg/max) = 4.864 | 4.865 | 4.867 Mbytes
Step Temp c_Thot c_Tcold f_hot f_cold 
   45001          300    298.87849    300.98752           -0           -0 
   46000    298.04986    315.89684    279.71883    -66.74733    77.831311 
   47000    300.17449     318.1673    281.91287   -100.40209    99.442089 
   48000    300.03122    319.75897    282.02474   -120.60518    111.59123 
   49000    299.98235    318.47922      274.431   -131.55868    144.76539 
   50000     300.2596    316.74666    281.72289   -153.36515    153.57431 
   51000    299.43628    318.50985    280.29964   -181.78438    181.89983 
   52000    300.33518     317.2345    282.50988   -196.99421    209.17593 
   53000    300.25584    318.28805    283.07496   -216.37957    225.04315 
   54000    300.24766    316.36283    282.30449   -241.02774    250.12001 
   55000    300.16357    318.66718    280.14708   -270.16651     277.5611 
   56000    299.77742    317.58105    280.11973   -300.50224    300.21076 
   57000    299.15824    316.36001    278.38185   -313.38683    323.46474 
   58000    299.94906     319.4146    279.74478   -343.88398    339.65082 
   59000    300.08429    319.21364    285.06562   -360.22416    367.99954 
   60000     299.9058    325.06702    279.09674   -395.51542    404.62251 
   61000    300.06233    323.08439    283.00888   -413.59041    417.60791 
   62000    299.86667    321.95624     280.7297   -433.02873     438.5803 
   63000    300.60797    319.18867     280.5224    -454.3575     466.7458 
   64000    300.22281    319.92881    284.70776   -496.24696    490.18285 
   65000    300.28513    320.66135    280.35238   -507.80321    507.00524 
   66000    300.13024    322.38006    281.46343   -538.32586    533.97655 
   67000    299.83225    320.77952    277.83793   -551.88292    566.43417 
   68000    299.27928    317.64683     279.9273   -576.25233    587.51246 
   69000    299.56152    316.45374    277.88484   -599.59066     611.1589 
   70000    299.56464    316.16936    278.67501   -615.73141    639.12248 
   71000    300.00018    316.69878    283.94779   -646.44733    651.55206 
   72000     299.2133    315.55244    276.92332   -666.38623    688.45729 
   73000     300.1914     324.5049    282.04512   -693.83617    708.78611 
   74000    299.90889    318.21822    281.82665   -712.10978    731.12618 
   75000    300.55697     316.3995    278.97691   -746.04411    756.42294 
   76000    299.76407    318.89753    278.98884   -756.37324    783.90396 
   77000       299.29    313.51639    281.36984   -774.06491    798.53661 
   78000    299.74772    319.20048    284.26699   -812.44988    822.90308 
   79000    300.10836    322.72946    280.31593    -837.5607    851.53397 
   80000    299.18296    318.31033    281.74131   -849.43652    877.60211 
   81000    299.34013    319.53949    282.72047   -861.08531    883.27084 
   82000    299.74733    321.53841     281.8622   -882.60313    917.49503 
   83000    299.59755    317.57607    279.53916   -897.20174    937.62542 
   84000    299.22091     320.1184     280.2747   -916.71611    962.41761 
   85000    299.02763    321.53855    278.78517   -951.88455    984.66016 
   86000    299.39409    315.91423    278.46027   -963.50076    1009.6108 
   87000    299.41117    318.97747      281.475   -985.26607     1031.646 
   88000    299.67703    317.53815    282.04408   -1003.2765    1052.1549 
   89000    299.05736    316.84957    277.53703   -1032.4354    1081.1232 
   90000    299.90155     320.5175    284.97583    -1055.281    1091.3971 
   91000    299.66947    318.95534    283.46485    -1073.294    1119.8417 
   92000    297.83649    313.81056    274.35524   -1090.9184    1151.8981 
   93000    299.55445    318.84886    276.77272   -1122.1099    1169.7909 
   94000    299.15468    317.20582    280.15876   -1151.4997    1184.2471 
   95000    299.28068    319.08887    279.86321   -1177.8266    1206.6593 
   96000    299.28403    316.94714    277.90915   -1201.5023    1230.3608 
   97000     299.3501     321.2014    282.25471   -1234.7125    1258.0195 
   98000      299.972    324.79792    281.55057   -1254.7846    1265.6013 
   99000    299.60679    321.62213    282.46855   -1277.0323     1290.503 
  100000      299.218    316.21853    278.81492   -1294.7229    1324.4145 
  101000    300.08413     317.4031    285.55825   -1313.8344    1340.9276 
  102000    299.02377     316.9938    279.46015      -1333.6    1376.8316 
  103000     299.1732    316.91747    281.45118   -1359.0199    1395.7446 
  104000    299.38126      315.922    278.99061     -1386.31    1415.4361 
  105000    299.92188    318.47325    281.48275   -1405.6633    1427.7965 
  106000    299.06938    319.50097    277.91201   -1432.9687    1455.7842 
  107000    300.09396    321.36627    282.85415   -1452.0001    1473.5768 
  108000    300.58664    324.24422    282.37014   -1482.8481    1500.6174 
  109000    299.89505    315.93731    285.92221   -1486.0751    1493.5894 
  110000    299.95281    323.46081    274.57429   -1520.7755    1543.9384 
  111000    299.37996    318.70077     283.9887   -1538.7953     1556.435 
  112000    299.30393    317.24802    281.90329   -1559.3497    1583.4001 
  113000    300.36337    321.58388    285.20903   -1589.0693    1612.4443 
  114000    299.56973    321.05322     282.2528   -1617.1427    1633.5332 
  115000    300.21454    323.12837    280.39812   -1654.7057    1658.7562 
  116000     299.4656    318.04464     283.1293   -1665.2895    1685.5712 
  117000    299.31316    316.49467    281.34082    -1683.592    1704.9337 
  118000    299.14219     318.5632    275.77508   -1704.4564    1738.8269 
  119000    299.50619    319.23708    283.48753   -1730.6969    1749.7408 
  120000    298.89271    319.57102    278.93202   -1748.0635    1780.9984 
  121000     299.8744    318.18029    281.32527   -1754.1499    1797.9732 
  122000    299.60286    319.90904    280.11949   -1793.1721    1824.2831 
  123000    299.35857    317.84711    284.40696   -1822.1654    1837.5338 
  124000    299.00558    315.56011     280.1407   -1823.6969    1868.4628 
  125000    298.89656    317.47915    277.45499   -1861.7489    1898.0964 
  126000    299.57438    319.34477    282.29294   -1877.0572    1905.0507 
  127000    299.30123    320.87773    279.56019   -1892.7697    1936.7503 
  128000    299.72006    318.48545    277.94164   -1913.5174    1960.7479 
  129000    299.22124    316.02576    277.35145   -1942.3434    1985.3386 
  130000    300.33807    317.62536    278.76345   -1981.0269    1998.2856 
  131000    300.13248     317.1362    281.19735   -2015.6821     2025.712 
  132000    300.42148    319.18835    279.72428   -2041.1082    2045.8214 
  133000     300.2253    317.78393    278.46564   -2064.1711    2066.8659 
  134000    300.59024     321.5659    282.75558   -2092.1021    2083.4368 
  135000    300.44173    320.76187    279.90929    -2112.013    2110.3189 
  136000    300.80355    317.41226    282.27943   -2129.8333    2125.2714 
  137000    299.65649    320.46759    280.94196   -2158.7916    2154.2995 
  138000    299.63936    315.77053    281.29412   -2173.9239    2175.6532 
  139000    299.97198     319.9335    284.06618   -2208.9636    2187.0375 
  140000    299.75249    317.59829    278.41175   -2216.7947     2212.928 
  141000    300.61268    317.94086    281.13925   -2246.4448    2235.7458 
  142000    300.12861    316.27136    280.08396   -2262.9179    2264.4268 
  143000    299.68297    320.84558    281.68388   -2290.1699    2284.0498 
  144000    300.09208     324.3307    277.79398   -2321.6544    2311.8341 
  145000     300.2995    320.66744    280.51173   -2347.4026    2331.0166 
  145001    300.31976    321.26083    280.52079   -2348.1738    2330.8466 
Loop time of 10196.7 on 32 procs for 100000 steps with 193600 atoms

Performance: 0.424 ns/day, 56.649 hours/ns, 9.807 timesteps/s
91.9% CPU use with 32 MPI tasks x no OpenMP threads

MPI task timing breakdown:
Section |  min time  |  avg time  |  max time  |%varavg| %total
---------------------------------------------------------------
Pair    | 8719       | 8845       | 8991.6     |  73.3 | 86.74
Neigh   | 0          | 0          | 0          |   0.0 |  0.00
Comm    | 513.67     | 775.04     | 966.63     | 407.2 |  7.60
Output  | 0.096652   | 0.10483    | 0.10857    |   0.9 |  0.00
Modify  | 397.28     | 545.4      | 696.82     | 444.7 |  5.35
Other   |            | 31.14      |            |       |  0.31

Nlocal:    6050 ave 6089 max 6006 min
Histogram: 2 2 4 3 6 1 6 1 3 4
Nghost:    5892.5 ave 5936 max 5853 min
Histogram: 4 3 1 5 2 6 3 4 2 2
Neighs:    0 ave 0 max 0 min
Histogram: 32 0 0 0 0 0 0 0 0 0
FullNghs:  236758 ave 238939 max 234630 min
Histogram: 3 2 3 3 7 2 5 0 5 2

Total # of neighbors = 7576248
Ave neighs/atom = 39.1335
Neighbor list builds = 0
Dangerous builds = 0

# thermal conductivity calculation
# reset langevin thermostats to zero energy accumulation
reset_timestep 0
thermo		$c
thermo		500000
compute		ke all ke/atom
variable	temp atom c_ke/1.5/8.617332478e-5
fix		hot all langevin ${thi} ${thi} ${tdamp} 389516 tally yes
fix		hot all langevin 319.9225 ${thi} ${tdamp} 389516 tally yes
fix		hot all langevin 319.9225 319.9225 ${tdamp} 389516 tally yes
fix		hot all langevin 319.9225 319.9225 0.05 389516 tally yes
fix_modify	hot temp Thot
fix		cold all langevin ${tlo} ${tlo} ${tdamp} 46579 tally yes
fix		cold all langevin 280.0775 ${tlo} ${tdamp} 46579 tally yes
fix		cold all langevin 280.0775 280.0775 ${tdamp} 46579 tally yes
fix		cold all langevin 280.0775 280.0775 0.05 46579 tally yes
fix_modify	cold temp Tcold

compute		ch all chunk/atom bin/1d x lower 0.02 units reduced
fix		11 all ave/chunk $a $b $c ch v_temp file sw_${P}.langevin
fix		11 all ave/chunk 100 $b $c ch v_temp file sw_${P}.langevin
fix		11 all ave/chunk 100 5000 $c ch v_temp file sw_${P}.langevin
fix		11 all ave/chunk 100 5000 500000 ch v_temp file sw_${P}.langevin
fix		11 all ave/chunk 100 5000 500000 ch v_temp file sw_34.langevin
thermo_style	custom step temp c_Thot c_Tcold f_hot f_cold

run		${t2nve}
run		500000
Per MPI rank memory allocation (min/avg/max) = 5.115 | 5.115 | 5.117 Mbytes
Step Temp c_Thot c_Tcold f_hot f_cold 
       0    300.31976    320.78915    280.30632           -0           -0 
  500000    300.11678    322.08345    284.24427   -11553.872    11554.928 
Loop time of 50619.7 on 32 procs for 500000 steps with 193600 atoms

Performance: 0.427 ns/day, 56.244 hours/ns, 9.878 timesteps/s
92.3% CPU use with 32 MPI tasks x no OpenMP threads

MPI task timing breakdown:
Section |  min time  |  avg time  |  max time  |%varavg| %total
---------------------------------------------------------------
Pair    | 43619      | 44214      | 45149      | 144.1 | 87.34
Neigh   | 0          | 0          | 0          |   0.0 |  0.00
Comm    | 2426.2     | 3600.7     | 4446.1     | 951.6 |  7.11
Output  | 0.000882   | 0.0017599  | 0.001932   |   0.4 |  0.00
Modify  | 1964.3     | 2656.8     | 3376.6     | 953.6 |  5.25
Other   |            | 148.6      |            |       |  0.29

Nlocal:    6050 ave 6110 max 6021 min
Histogram: 7 5 5 5 2 3 4 0 0 1
Nghost:    5892.5 ave 5921 max 5833 min
Histogram: 1 0 0 4 3 2 5 5 5 7
Neighs:    0 ave 0 max 0 min
Histogram: 32 0 0 0 0 0 0 0 0 0
FullNghs:  236753 ave 239673 max 235047 min
Histogram: 5 5 3 7 3 1 6 1 0 1

Total # of neighbors = 7576082
Ave neighs/atom = 39.1327
Neighbor list builds = 0
Dangerous builds = 0
clear
next		P
jump		Si.in
 units       metal
#----------------------------- User Input Variables --------------------------------------
################### Geometrical Parameters ###############################
variable	P index 33 34 35 36
variable	W equal 22
# Lattice Constant
variable	LC equal 5.43
# Length
variable	L equal 50
# Width
#variable	W equal 6
# Height
variable	H equal ${W}
variable	H equal 22
################### Simulation Condition ###############################
#DT/DX=cte
variable	cte equal 1.5938
log         sw_${P}.log
log         sw_35.log
