# temperature
variable	T equal 300
#cold region temperature
#variable        tlo equal 275
variable        tlo equal ${T}-${L}*${cte}/4.0
variable        tlo equal 300-${L}*${cte}/4.0
variable        tlo equal 300-50*${cte}/4.0
variable        tlo equal 300-50*1.5938/4.0
#hot region temperature
#variable        thi equal ${cte}*${L}/2+${tlo}
variable        thi equal ${T}+${L}*${cte}/4.0
variable        thi equal 300+${L}*${cte}/4.0
variable        thi equal 300+50*${cte}/4.0
variable        thi equal 300+50*1.5938/4.0

#time step (picoseconds)
variable	dt equal 0.0005 # 0.5 femtoseconds
#number of time steps for NPT
variable	tnpt equal 5000
#number of time steps for NVT
variable	tnvt equal 40000
#number of time steps for first NVE
variable	t1nve equal 100000
#number of time steps for second NVE
variable	t2nve equal 500000

################### Variable Based on LAMMPS Documentation ######################
variable	a equal 100
variable	c equal ${t2nve}
variable	c equal 500000
variable	b equal $c/$a
variable	b equal 500000/$a
variable	b equal 500000/100
variable	tdamp equal ${dt}*100
variable	tdamp equal 0.0005*100
variable	pdamp equal ${dt}*1000
variable	pdamp equal 0.0005*1000

#----------------------------------------------------------------------------------------
# setup problem
dimension       3
boundary        p p p
atom_style      atomic
lattice 	diamond ${LC} origin 0.0 0.0 0.0 orient x 1 0 0 orient y 0 1 0 orient z 0 0 1
lattice 	diamond 5.43 origin 0.0 0.0 0.0 orient x 1 0 0 orient y 0 1 0 orient z 0 0 1
Lattice spacing in x,y,z = 5.43 5.43 5.43
region          0 block 0 $L 0 $W 0 $H units lattice side in
region          0 block 0 50 0 $W 0 $H units lattice side in
region          0 block 0 50 0 22 0 $H units lattice side in
region          0 block 0 50 0 22 0 22 units lattice side in
create_box      1 0
Created orthogonal box = (0 0 0) to (271.5 119.46 119.46)
  8 by 2 by 2 MPI processor grid
create_atoms    1 region 0
Created 193600 atoms
mass		1 28.0855
#dump		1 all xyz 1000 Si_W_${W}nm.xyz
#dump_modify	1 element Si

############################################
pair_style   sw
pair_coeff   * * Si${P}.sw Si
pair_coeff   * * Si36.sw Si
thermo		100
thermo_style custom step lx
min_style cg
minimize 0.0 1.0e-8 10000 100000
WARNING: Using 'neigh_modify every 1 delay 0 check yes' setting during minimization (../min.cpp:168)
Neighbor list info ...
  update every 1 steps, delay 0 steps, check yes
  max neighbors/atom: 2000, page size: 100000
  master list distance cutoff = 5.66598
  ghost atom cutoff = 5.66598
  binsize = 2.83299, bins = 96 43 43
  1 neighbor lists, perpetual/occasional/extra = 1 0 0
  (1) pair sw, perpetual
      attributes: full, newton on
      pair build: full/bin/atomonly
      stencil: full/bin/3d
      bin: standard
Per MPI rank memory allocation (min/avg/max) = 5.239 | 5.241 | 5.242 Mbytes
Step Lx 
       0        271.5 
       1        271.5 
Loop time of 0.0424764 on 32 procs for 1 steps with 193600 atoms

73.3% CPU use with 32 MPI tasks x no OpenMP threads

Minimization stats:
  Stopping criterion = force tolerance
  Energy initial, next-to-last, final = 
        -795415.197965     -795415.197965     -795415.197965
  Force two-norm initial, final = 8.66037e-11 8.65404e-11
  Force max component initial, final = 5.02169e-13 5.04846e-13
  Final line search alpha, max atom move = 1 5.04846e-13
  Iterations, force evaluations = 1 2

MPI task timing breakdown:
Section |  min time  |  avg time  |  max time  |%varavg| %total
---------------------------------------------------------------
Pair    | 0.02445    | 0.024823   | 0.025268   |   0.2 | 58.44
Neigh   | 0          | 0          | 0          |   0.0 |  0.00
Comm    | 0.006767   | 0.0099218  | 0.013806   |   2.1 | 23.36
Output  | 0          | 0          | 0          |   0.0 |  0.00
Modify  | 0          | 0          | 0          |   0.0 |  0.00
Other   |            | 0.007731   |            |       | 18.20

Nlocal:    6050 ave 6050 max 6050 min
Histogram: 32 0 0 0 0 0 0 0 0 0
Nghost:    5892.5 ave 5893 max 5892 min
Histogram: 16 0 0 0 0 0 0 0 0 16
Neighs:    0 ave 0 max 0 min
Histogram: 32 0 0 0 0 0 0 0 0 0
FullNghs:  205700 ave 205700 max 205700 min
Histogram: 32 0 0 0 0 0 0 0 0 0

Total # of neighbors = 6582400
Ave neighs/atom = 34
Neighbor list builds = 0
Dangerous builds = 0
timestep     ${dt}
timestep     0.0005
velocity 	all create $T 492845
velocity 	all create 300 492845


fix 		NPT all npt temp $T $T ${tdamp} iso 0.0 0.0 ${pdamp}
fix 		NPT all npt temp 300 $T ${tdamp} iso 0.0 0.0 ${pdamp}
fix 		NPT all npt temp 300 300 ${tdamp} iso 0.0 0.0 ${pdamp}
fix 		NPT all npt temp 300 300 0.05 iso 0.0 0.0 ${pdamp}
fix 		NPT all npt temp 300 300 0.05 iso 0.0 0.0 0.5
thermo		100
thermo_style custom step lx press
run		${tnpt}
run		5000
Per MPI rank memory allocation (min/avg/max) = 4.114 | 4.116 | 4.117 Mbytes
Step Lx Press 
       1        271.5   -49616.005 
     100    268.45225   -15494.611 
     200    267.37915   -913.69918 
     300    267.26042   -214.91095 
     400    267.28256    71.963571 
     500    267.29265    143.41013 
     600    267.29541   -119.10467 
     700    267.30763    52.010594 
     800    267.32241    -6.935641 
     900    267.32593    27.309942 
    1000    267.33279    47.421379 
    1100    267.35495   -55.814195 
    1200    267.35017    74.932446 
    1300    267.36149    4.4557208 
    1400     267.3744   -57.805236 
    1500    267.37069    2.7130296 
    1600    267.36958    47.123985 
    1700    267.37389   -86.404939 
    1800    267.36883   -19.656118 
    1900    267.36015    105.88952 
    2000    267.37607   -121.26995 
    2100    267.36608    47.905542 
    2200    267.37087    32.374157 
    2300    267.37305   -51.168628 
    2400    267.36629    27.992798 
    2500    267.36869   -3.2905151 
    2600    267.36699  -0.21069508 
    2700    267.37096   -14.591974 
    2800    267.36976    13.412737 
    2900    267.37297   -25.102147 
    3000    267.36587    4.7909853 
    3100    267.36495    32.402989 
    3200    267.37545   -39.677925 
    3300    267.36408    37.407217 
    3400    267.36832   -3.7642066 
    3500    267.37676   -55.616568 
    3600    267.35855    75.050091 
    3700    267.37659   -43.823188 
    3800    267.36881    -44.10881 
    3900    267.36328    84.274531 
    4000    267.37595   -73.531784 
    4100    267.36235    39.038808 
    4200    267.37695   -21.046894 
    4300    267.35879    63.578335 
    4400    267.38183   -106.97392 
    4500    267.35522    124.53693 
    4600    267.37758   -83.921132 
    4700    267.36624    26.075882 
    4800    267.36818    13.658351 
    4900    267.37195    -24.78942 
    5000    267.36713    4.0241639 
    5001    267.36709    3.7548952 
Loop time of 94.1305 on 32 procs for 5000 steps with 193600 atoms

Performance: 2.295 ns/day, 10.459 hours/ns, 53.118 timesteps/s
77.6% CPU use with 32 MPI tasks x no OpenMP threads

MPI task timing breakdown:
Section |  min time  |  avg time  |  max time  |%varavg| %total
---------------------------------------------------------------
Pair    | 58.176     | 59.227     | 65.832     |  16.6 | 62.92
Neigh   | 0.059641   | 0.062209   | 0.064952   |   0.4 |  0.07
Comm    | 11.486     | 20.33      | 26.938     |  89.7 | 21.60
Output  | 0.02632    | 0.033328   | 0.035691   |   1.3 |  0.04
Modify  | 7.0177     | 13.288     | 21.594     | 103.8 | 14.12
Other   |            | 1.19       |            |       |  1.26

Nlocal:    6050 ave 6094 max 5996 min
Histogram: 1 2 4 3 1 5 7 4 3 2
Nghost:    5892.5 ave 5946 max 5848 min
Histogram: 2 3 3 8 3 3 3 4 2 1
Neighs:    0 ave 0 max 0 min
Histogram: 32 0 0 0 0 0 0 0 0 0
FullNghs:  205835 ave 207349 max 203997 min
Histogram: 1 2 4 3 3 3 8 3 3 2

Total # of neighbors = 6586728
Ave neighs/atom = 34.0224
Neighbor list builds = 5
Dangerous builds = 0
unfix		NPT
variable	length equal lx/${LC}
variable	length equal lx/5.43

################### Geometrical Parameters After Relaxation ###############################
# Thermostat_width
variable	TW equal ${length}/40
variable	TW equal 49.2388741454943/40
# Hot_Start
variable	hs equal ${length}/4-${TW}
variable	hs equal 49.2388741454943/4-${TW}
variable	hs equal 49.2388741454943/4-1.23097185363736
# Hot_End
variable	he equal ${length}/4+${TW}
variable	he equal 49.2388741454943/4+${TW}
variable	he equal 49.2388741454943/4+1.23097185363736
# Cold_Start
variable	cs equal 3*${length}/4-${TW}
variable	cs equal 3*49.2388741454943/4-${TW}
variable	cs equal 3*49.2388741454943/4-1.23097185363736
# Cold_End
variable	ce equal 3*${length}/4+${TW}
variable	ce equal 3*49.2388741454943/4+${TW}
variable	ce equal 3*49.2388741454943/4+1.23097185363736
###########################################################################################

################### Defining Thermostat ###################################################
region 		hot block ${hs} ${he} EDGE EDGE EDGE EDGE
region 		hot block 11.0787466827362 ${he} EDGE EDGE EDGE EDGE
region 		hot block 11.0787466827362 13.5406903900109 EDGE EDGE EDGE EDGE
region 		cold block ${cs} ${ce} EDGE EDGE EDGE EDGE
region 		cold block 35.6981837554834 ${ce} EDGE EDGE EDGE EDGE
region 		cold block 35.6981837554834 38.1601274627581 EDGE EDGE EDGE EDGE
group		test region cold
9567 atoms in group test
group		test1 region hot
9568 atoms in group test1
compute		Thot all temp/region hot
compute         Tcold all temp/region cold
###########################################################################################

fix		NVT all nvt temp $T $T ${tdamp}
fix		NVT all nvt temp 300 $T ${tdamp}
fix		NVT all nvt temp 300 300 ${tdamp}
fix		NVT all nvt temp 300 300 0.05
thermo		1000
thermo_style	custom step temp
run		${tnvt}
run		40000
Per MPI rank memory allocation (min/avg/max) = 4.118 | 4.12 | 4.121 Mbytes
Step Temp 
    5001    301.42374 
    6000    298.41461 
    7000    298.91732 
    8000    300.32519 
    9000    299.34913 
   10000    299.89953 
   11000    299.97552 
   12000    302.07231 
   13000    301.87853 
   14000    299.36146 
   15000    299.76738 
   16000    298.38925 
   17000    298.96145 
   18000    300.22895 
   19000     299.9817 
   20000    298.15022 
   21000    299.64968 
   22000    300.43372 
   23000    300.56219 
   24000    299.00141 
   25000    298.79311 
   26000    299.24987 
   27000    300.58022 
   28000    299.86763 
   29000    300.64658 
   30000    300.53135 
   31000    300.22434 
   32000    300.67709 
   33000    299.95475 
   34000    302.00216 
   35000    299.98638 
   36000    299.89466 
   37000    300.56183 
   38000    300.28582 
   39000    299.82757 
   40000    299.93256 
   41000    300.32828 
   42000    300.99665 
   43000    300.74293 
   44000    300.01932 
   45000     300.5446 
   45001    300.47839 
Loop time of 714.529 on 32 procs for 40000 steps with 193600 atoms

Performance: 2.418 ns/day, 9.924 hours/ns, 55.981 timesteps/s
79.9% CPU use with 32 MPI tasks x no OpenMP threads

MPI task timing breakdown:
Section |  min time  |  avg time  |  max time  |%varavg| %total
---------------------------------------------------------------
Pair    | 477        | 482.61     | 494.01     |  16.5 | 67.54
Neigh   | 0          | 0          | 0          |   0.0 |  0.00
Comm    | 97.518     | 148.78     | 189.81     | 225.7 | 20.82
Output  | 0.022294   | 0.025106   | 0.027867   |   1.2 |  0.00
Modify  | 31.475     | 69.5       | 111.81     | 309.1 |  9.73
Other   |            | 13.61      |            |       |  1.91

Nlocal:    6050 ave 6092 max 5989 min
Histogram: 1 1 2 5 2 4 6 2 4 5
Nghost:    5892.41 ave 5954 max 5851 min
Histogram: 5 4 2 7 3 2 5 2 1 1
Neighs:    0 ave 0 max 0 min
Histogram: 32 0 0 0 0 0 0 0 0 0
FullNghs:  208046 ave 209455 max 205855 min
Histogram: 2 0 3 4 2 1 6 5 3 6

Total # of neighbors = 6657476
Ave neighs/atom = 34.3878
Neighbor list builds = 0
Dangerous builds = 0
velocity	all scale $T
velocity	all scale 300
unfix		NVT

fix		NVE all nve
fix		hot all langevin ${thi} ${thi} ${tdamp} 389516 tally yes
fix		hot all langevin 319.9225 ${thi} ${tdamp} 389516 tally yes
fix		hot all langevin 319.9225 319.9225 ${tdamp} 389516 tally yes
fix		hot all langevin 319.9225 319.9225 0.05 389516 tally yes
fix_modify	hot temp Thot
fix		cold all langevin ${tlo} ${tlo} ${tdamp} 46579 tally yes
fix		cold all langevin 280.0775 ${tlo} ${tdamp} 46579 tally yes
fix		cold all langevin 280.0775 280.0775 ${tdamp} 46579 tally yes
fix		cold all langevin 280.0775 280.0775 0.05 46579 tally yes
fix_modify	cold temp Tcold

thermo_style	custom step temp c_Thot c_Tcold f_hot f_cold
run		${t1nve}
run		100000
Per MPI rank memory allocation (min/avg/max) = 4.868 | 4.87 | 4.871 Mbytes
Step Temp c_Thot c_Tcold f_hot f_cold 
   45001          300    300.89827    295.68015           -0           -0 
   46000    300.30191    324.40789    282.92833   -80.187439     71.72298 
   47000    299.94156    322.43678    281.58779   -101.19576    97.316273 
   48000    299.15822    316.31815    283.72471    -118.4258    107.69211 
   49000    300.14947    316.84132    277.41967   -138.12811    138.46162 
   50000    301.35504    319.26071    283.54939    -158.3014    134.25645 
   51000    300.13642    320.12287     275.7495   -189.09182    166.66644 
   52000     300.0596    317.23399    281.24076    -209.9114    190.34127 
   53000     300.2393    317.93975    282.29402   -229.33177    210.86251 
   54000    300.21665    316.64479    282.41225   -243.15483    231.09322 
   55000    300.10296    316.09714    282.09292   -270.66115    256.87533 
   56000    300.22848    321.90327    282.24902   -312.15195    291.04449 
   57000    300.42617    319.17845    282.93611   -332.26098    320.92445 
   58000    299.93344    317.99235    279.07615   -360.41901    357.70966 
   59000     299.7795    325.20172    282.14831   -394.32173    388.83928 
   60000    300.32218    321.35214    279.30511     -419.598     415.9078 
   61000    299.89969    315.47311    280.60141   -441.11955    442.40998 
   62000    299.85877    320.09889    278.72582   -476.45942    481.41082 
   63000    299.28544    322.62461    278.53814   -514.59671     510.3974 
   64000    299.44743    319.56702    278.41831   -532.15305    546.77892 
   65000    299.36591    320.70323    280.24348    -560.5991    571.96603 
   66000    299.69433    318.79073    279.03244   -585.31701    606.71226 
   67000    299.99198    326.70151    282.12268   -626.20199    634.49924 
   68000      299.175    314.86148    280.12371   -636.97873    658.64187 
   69000    299.81282    322.77621    280.55697   -670.97814    686.79284 
   70000    298.87573     318.9026    281.38756   -716.81562    718.90387 
   71000    300.36575    319.95563    284.73313   -742.78101    735.84123 
   72000    299.82227    321.28562    280.27284   -781.02913    770.85361 
   73000     300.5699    320.44571    283.90064   -798.52689     799.0732 
   74000     299.4761    321.44143    279.99425   -816.10931    832.44095 
   75000    299.08905     320.7597    280.97829   -854.34504    867.96546 
   76000    299.72353     316.6682    283.27362   -875.99813    902.53908 
   77000    299.49346    322.96997    282.02817   -899.93046    933.45715 
   78000    299.17934    317.18814    279.04424   -931.99599    967.02645 
   79000    298.95414    315.87584    277.48024   -971.24447    1000.4035 
   80000       299.94    318.30953    283.14081   -999.37781    1013.9891 
   81000    299.35028    318.05847    284.29009   -1024.3964    1044.0302 
   82000    299.42528    318.58946    279.95575   -1069.0002    1077.0646 
   83000    300.41736    317.08039    281.93371   -1100.6969    1098.1535 
   84000    300.00483    318.37321    282.30978   -1129.3902    1131.0759 
   85000    299.70747    322.82957     281.5277    -1160.466    1160.0223 
   86000    299.34038    318.47287    283.27146   -1170.9208    1174.4339 
   87000    299.98758    319.74107    281.28056   -1203.2074     1211.492 
   88000    299.56596    319.70684    280.81613   -1241.1033    1240.1046 
   89000     299.5768    319.51857     278.1736   -1273.8292    1267.4123 
   90000    299.43164    319.33883     279.0673    -1302.572    1302.8727 
   91000     300.2184    315.29217    283.13522   -1328.1767    1326.8407 
   92000    300.22874    317.66093    280.67758   -1370.8487    1361.0188 
   93000     300.3214    320.82958    280.46225   -1392.7842    1392.2834 
   94000    301.18386    323.90672    284.12719   -1430.2316    1409.8575 
   95000    299.94324    318.43358     282.5068    -1451.125    1443.7953 
   96000    300.20539     321.1803     280.7626   -1483.6275    1476.7562 
   97000     299.6651    323.53462    277.08994   -1511.3193    1521.7735 
   98000    300.06221    318.24926    284.82793   -1528.3173    1533.2333 
   99000     300.7249    315.39782    282.45563   -1564.6274    1552.2303 
  100000    301.14561    320.42685    283.45607   -1601.2418    1587.2224 
  101000    299.40706     316.3543    278.39183   -1611.7887    1624.1371 
  102000    300.12211    324.55595    285.46574   -1663.5503    1638.4267 
  103000    300.19474    318.81181    286.52725   -1686.1141    1672.0484 
  104000     300.0286    317.11463    283.47224   -1713.7295    1710.8627 
  105000    300.02373    317.92498     281.5354   -1740.0271    1737.5742 
  106000    300.23437    321.01842     284.0593   -1767.1644    1765.6485 
  107000    299.59248    313.68094    281.49244    -1795.857    1796.3068 
  108000    300.02521    314.80814    280.42666   -1814.7147    1821.6838 
  109000    298.53451    317.66326    275.57277   -1852.2986    1859.8702 
  110000    299.99999    316.97829    279.00272   -1878.8668    1891.5612 
  111000    298.99586    316.90362     282.8168   -1896.5031    1920.0146 
  112000     298.7754    316.39643    279.64971   -1924.0665     1949.975 
  113000    299.21521    317.87705    280.54324   -1952.1693    1964.2793 
  114000    299.62272    317.29709    277.15523   -1987.8132    2005.5182 
  115000    299.86237    322.12054    282.68403    -2020.542    2032.9759 
  116000    299.96939    312.78695    282.36841   -2043.4632    2059.3545 
  117000    299.60721    316.08494    282.85695   -2077.6114    2084.7444 
  118000    299.96238    322.80022    284.37345   -2111.2942    2115.2723 
  119000    299.06153    316.59968    279.18609   -2135.2326    2144.6069 
  120000     300.1776    317.28814      282.562   -2161.2926    2178.0574 
  121000    300.00856    318.35395    281.64314   -2196.1848    2210.9808 
  122000    299.71383    322.28533    282.34993   -2229.1519    2227.7614 
  123000    299.59344    318.63825    282.85486   -2249.5672    2270.7826 
  124000     299.4354    319.46073    281.14281   -2274.3834    2306.1709 
  125000    299.57286    314.57545     282.0094   -2300.3217    2329.6774 
  126000    298.77229    318.90409    282.77477   -2328.8505    2357.9937 
  127000    299.48021    313.75214    282.42583   -2370.5386    2387.5388 
  128000    299.37181    320.30938    279.60431   -2406.7041    2429.9605 
  129000    299.29267     319.7894    281.26279   -2437.9216     2450.097 
  130000    299.70457    318.78963    283.86634   -2462.9856    2475.8279 
  131000    299.06469    318.45657    283.08812   -2494.4759    2506.7623 
  132000    299.77555    312.21998     284.9537    -2515.321    2527.5334 
  133000    299.94783    321.37186     283.4699   -2560.3039    2557.8276 
  134000    299.40456    320.97835    279.47194   -2589.3594    2591.2826 
  135000    299.39261    314.40925    285.44711   -2611.9875     2611.602 
  136000    299.63273    320.78475    284.84823   -2639.5635    2650.8144 
  137000    300.12484    318.45076    279.66731   -2666.4728    2677.0334 
  138000    299.44917    319.48645    284.56251   -2696.3143    2703.3402 
  139000     299.4279    318.17407    283.78355   -2723.8197    2743.5368 
  140000    299.80228    323.79451    281.48232   -2762.8804    2772.2954 
  141000    298.94382    322.54587    283.65891   -2776.6106    2797.4079 
  142000    299.44295    319.07138    280.06423   -2810.1501    2836.0001 
  143000    298.85783    317.98662    278.33108   -2833.3812    2875.1435 
  144000    299.33249     320.8627    283.11848   -2869.3344    2894.9409 
  145000    299.06782    314.28189    281.91051   -2900.6304    2929.0483 
  145001    299.07349    313.93544    281.78044   -2900.0933    2929.1128 
Loop time of 1935.72 on 32 procs for 100000 steps with 193600 atoms

Performance: 2.232 ns/day, 10.754 hours/ns, 51.660 timesteps/s
79.7% CPU use with 32 MPI tasks x no OpenMP threads

MPI task timing breakdown:
Section |  min time  |  avg time  |  max time  |%varavg| %total
---------------------------------------------------------------
Pair    | 1188.9     | 1212.8     | 1236.2     |  28.1 | 62.65
Neigh   | 0          | 0          | 0          |   0.0 |  0.00
Comm    | 272.13     | 383.46     | 488.59     | 344.1 | 19.81
Output  | 0.098708   | 0.10834    | 0.11167    |   1.0 |  0.01
Modify  | 197.28     | 305.13     | 410.23     | 380.7 | 15.76
Other   |            | 34.25      |            |       |  1.77

Nlocal:    6050 ave 6085 max 5997 min
Histogram: 1 0 2 4 2 6 3 8 3 3
Nghost:    5892.41 ave 5946 max 5858 min
Histogram: 3 4 7 3 6 2 4 2 0 1
Neighs:    0 ave 0 max 0 min
Histogram: 32 0 0 0 0 0 0 0 0 0
FullNghs:  208080 ave 209359 max 206228 min
Histogram: 1 1 1 4 4 5 4 7 2 3

Total # of neighbors = 6658570
Ave neighs/atom = 34.3934
Neighbor list builds = 0
Dangerous builds = 0

# thermal conductivity calculation
# reset langevin thermostats to zero energy accumulation
reset_timestep 0
thermo		$c
thermo		500000
compute		ke all ke/atom
variable	temp atom c_ke/1.5/8.617332478e-5
fix		hot all langevin ${thi} ${thi} ${tdamp} 389516 tally yes
fix		hot all langevin 319.9225 ${thi} ${tdamp} 389516 tally yes
fix		hot all langevin 319.9225 319.9225 ${tdamp} 389516 tally yes
fix		hot all langevin 319.9225 319.9225 0.05 389516 tally yes
fix_modify	hot temp Thot
fix		cold all langevin ${tlo} ${tlo} ${tdamp} 46579 tally yes
fix		cold all langevin 280.0775 ${tlo} ${tdamp} 46579 tally yes
fix		cold all langevin 280.0775 280.0775 ${tdamp} 46579 tally yes
fix		cold all langevin 280.0775 280.0775 0.05 46579 tally yes
fix_modify	cold temp Tcold

compute		ch all chunk/atom bin/1d x lower 0.02 units reduced
fix		11 all ave/chunk $a $b $c ch v_temp file sw_${P}.langevin
fix		11 all ave/chunk 100 $b $c ch v_temp file sw_${P}.langevin
fix		11 all ave/chunk 100 5000 $c ch v_temp file sw_${P}.langevin
fix		11 all ave/chunk 100 5000 500000 ch v_temp file sw_${P}.langevin
fix		11 all ave/chunk 100 5000 500000 ch v_temp file sw_36.langevin
thermo_style	custom step temp c_Thot c_Tcold f_hot f_cold

run		${t2nve}
run		500000
Per MPI rank memory allocation (min/avg/max) = 5.118 | 5.12 | 5.121 Mbytes
Step Temp c_Thot c_Tcold f_hot f_cold 
       0    299.07349    314.24058    281.55136           -0           -0 
  500000    299.75852    321.09824    283.31694   -14845.674    14779.319 
Loop time of 9697.8 on 32 procs for 500000 steps with 193600 atoms

Performance: 2.227 ns/day, 10.775 hours/ns, 51.558 timesteps/s
79.6% CPU use with 32 MPI tasks x no OpenMP threads

MPI task timing breakdown:
Section |  min time  |  avg time  |  max time  |%varavg| %total
---------------------------------------------------------------
Pair    | 5952.2     | 6070       | 6156.3     |  58.9 | 62.59
Neigh   | 0.011983   | 0.012809   | 0.017597   |   0.8 |  0.00
Comm    | 1359.6     | 1938.2     | 2481.9     | 769.0 | 19.99
Output  | 0.00081    | 0.0017315  | 0.001821   |   0.4 |  0.00
Modify  | 997.04     | 1519.6     | 2033.1     | 847.3 | 15.67
Other   |            | 170.1      |            |       |  1.75

Nlocal:    6050 ave 6080 max 6023 min
Histogram: 2 5 4 3 5 4 2 1 1 5
Nghost:    5736.66 ave 5792 max 5701 min
Histogram: 6 6 1 3 6 3 2 1 1 3
Neighs:    0 ave 0 max 0 min
Histogram: 32 0 0 0 0 0 0 0 0 0
FullNghs:  208148 ave 209200 max 207121 min
Histogram: 1 5 5 2 6 3 1 2 3 4

Total # of neighbors = 6660726
Ave neighs/atom = 34.4046
Neighbor list builds = 1
Dangerous builds = 0
clear
next		P
jump		Si.in
Total wall time: 41:17:33
