# temperature
variable	T equal 300
#cold region temperature
#variable        tlo equal 275
variable        tlo equal ${T}-${L}*${cte}/4.0
variable        tlo equal 300-${L}*${cte}/4.0
variable        tlo equal 300-50*${cte}/4.0
variable        tlo equal 300-50*1.5938/4.0
#hot region temperature
#variable        thi equal ${cte}*${L}/2+${tlo}
variable        thi equal ${T}+${L}*${cte}/4.0
variable        thi equal 300+${L}*${cte}/4.0
variable        thi equal 300+50*${cte}/4.0
variable        thi equal 300+50*1.5938/4.0

#time step (picoseconds)
variable	dt equal 0.0005 # 0.5 femtoseconds
#number of time steps for NPT
variable	tnpt equal 5000
#number of time steps for NVT
variable	tnvt equal 40000
#number of time steps for first NVE
variable	t1nve equal 100000
#number of time steps for second NVE
variable	t2nve equal 500000

################### Variable Based on LAMMPS Documentation ######################
variable	a equal 100
variable	c equal ${t2nve}
variable	c equal 500000
variable	b equal $c/$a
variable	b equal 500000/$a
variable	b equal 500000/100
variable	tdamp equal ${dt}*100
variable	tdamp equal 0.0005*100
variable	pdamp equal ${dt}*1000
variable	pdamp equal 0.0005*1000

#----------------------------------------------------------------------------------------
# setup problem
dimension       3
boundary        p p p
atom_style      atomic
lattice 	diamond ${LC} origin 0.0 0.0 0.0 orient x 1 0 0 orient y 0 1 0 orient z 0 0 1
lattice 	diamond 5.43 origin 0.0 0.0 0.0 orient x 1 0 0 orient y 0 1 0 orient z 0 0 1
Lattice spacing in x,y,z = 5.43 5.43 5.43
region          0 block 0 $L 0 $W 0 $H units lattice side in
region          0 block 0 50 0 $W 0 $H units lattice side in
region          0 block 0 50 0 22 0 $H units lattice side in
region          0 block 0 50 0 22 0 22 units lattice side in
create_box      1 0
Created orthogonal box = (0 0 0) to (271.5 119.46 119.46)
  8 by 2 by 2 MPI processor grid
create_atoms    1 region 0
Created 193600 atoms
mass		1 28.0855
#dump		1 all xyz 1000 Si_W_${W}nm.xyz
#dump_modify	1 element Si

############################################
pair_style   sw
pair_coeff   * * Si${P}.sw Si
pair_coeff   * * Si35.sw Si
thermo		100
thermo_style custom step lx
min_style cg
minimize 0.0 1.0e-8 10000 100000
WARNING: Using 'neigh_modify every 1 delay 0 check yes' setting during minimization (../min.cpp:168)
Neighbor list info ...
  update every 1 steps, delay 0 steps, check yes
  max neighbors/atom: 2000, page size: 100000
  master list distance cutoff = 5.55319
  ghost atom cutoff = 5.55319
  binsize = 2.77659, bins = 98 44 44
  1 neighbor lists, perpetual/occasional/extra = 1 0 0
  (1) pair sw, perpetual
      attributes: full, newton on
      pair build: full/bin/atomonly
      stencil: full/bin/3d
      bin: standard
Per MPI rank memory allocation (min/avg/max) = 5.246 | 5.246 | 5.246 Mbytes
Step Lx 
       0        271.5 
       1        271.5 
Loop time of 0.0409681 on 32 procs for 1 steps with 193600 atoms

75.0% CPU use with 32 MPI tasks x no OpenMP threads

Minimization stats:
  Stopping criterion = force tolerance
  Energy initial, next-to-last, final = 
        -572569.344692     -572569.344692     -572569.344692
  Force two-norm initial, final = 6.93095e-11 6.92633e-11
  Force max component initial, final = 4.02752e-13 4.04662e-13
  Final line search alpha, max atom move = 1 4.04662e-13
  Iterations, force evaluations = 1 2

MPI task timing breakdown:
Section |  min time  |  avg time  |  max time  |%varavg| %total
---------------------------------------------------------------
Pair    | 0.024352   | 0.02467    | 0.025803   |   0.2 | 60.22
Neigh   | 0          | 0          | 0          |   0.0 |  0.00
Comm    | 0.006309   | 0.0093507  | 0.012984   |   2.1 | 22.82
Output  | 0          | 0          | 0          |   0.0 |  0.00
Modify  | 0          | 0          | 0          |   0.0 |  0.00
Other   |            | 0.006947   |            |       | 16.96

Nlocal:    6050 ave 6050 max 6050 min
Histogram: 32 0 0 0 0 0 0 0 0 0
Nghost:    5892.5 ave 5893 max 5892 min
Histogram: 16 0 0 0 0 0 0 0 0 16
Neighs:    0 ave 0 max 0 min
Histogram: 32 0 0 0 0 0 0 0 0 0
FullNghs:  205700 ave 205700 max 205700 min
Histogram: 32 0 0 0 0 0 0 0 0 0

Total # of neighbors = 6582400
Ave neighs/atom = 34
Neighbor list builds = 0
Dangerous builds = 0
timestep     ${dt}
timestep     0.0005
velocity 	all create $T 492845
velocity 	all create 300 492845


fix 		NPT all npt temp $T $T ${tdamp} iso 0.0 0.0 ${pdamp}
fix 		NPT all npt temp 300 $T ${tdamp} iso 0.0 0.0 ${pdamp}
fix 		NPT all npt temp 300 300 ${tdamp} iso 0.0 0.0 ${pdamp}
fix 		NPT all npt temp 300 300 0.05 iso 0.0 0.0 ${pdamp}
fix 		NPT all npt temp 300 300 0.05 iso 0.0 0.0 0.5
thermo		100
thermo_style custom step lx press
run		${tnpt}
run		5000
Per MPI rank memory allocation (min/avg/max) = 4.121 | 4.121 | 4.121 Mbytes
Step Lx Press 
       1        271.5   -82634.879 
     100    267.25497   -45303.952 
     200    264.80936   -20083.698 
     300    263.51852    -5682.634 
     400    263.06062   -762.64633 
     500     263.0228    184.59254 
     600    263.03437    123.52499 
     700    263.05391   -59.404591 
     800    263.07188    104.92184 
     900    263.07658    16.743019 
    1000    263.10246    48.981912 
    1100    263.11168   -52.563646 
    1200     263.1183    161.59791 
    1300    263.14165   -126.30789 
    1400     263.1392    83.531076 
    1500    263.14901   -46.297971 
    1600    263.14608    8.1127802 
    1700    263.14262   -40.443502 
    1800    263.13689     44.92597 
    1900    263.13946   -47.890269 
    2000    263.14067    19.621036 
    2100    263.14206    20.714843 
    2200    263.14733   -34.669054 
    2300    263.14145    42.043807 
    2400    263.14106   -40.458299 
    2500    263.13853    24.523346 
    2600    263.13932    -3.986977 
    2700    263.14178     2.751908 
    2800     263.1467   -12.017826 
    2900    263.14224    1.2020222 
    3000    263.14381   -29.002952 
    3100    263.13525   -1.6783614 
    3200    263.13875    19.283168 
    3300    263.14797   -32.174991 
    3400    263.14043    10.937165 
    3500    263.14116    3.6878419 
    3600    263.14651     -19.4929 
    3700    263.13224    21.604871 
    3800    263.14345    16.014393 
    3900    263.14471    -58.23323 
    4000    263.13313    108.03095 
    4100    263.15512   -111.62798 
    4200      263.127    100.88792 
    4300    263.15273   -59.700315 
    4400    263.12963     35.95151 
    4500    263.14776   -8.4789397 
    4600    263.13667    10.328224 
    4700    263.14409   -7.2775881 
    4800    263.14086    13.478406 
    4900    263.14124   -10.387948 
    5000    263.13923    15.933127 
    5001    263.13926    16.285032 
Loop time of 76.9443 on 32 procs for 5000 steps with 193600 atoms

Performance: 2.807 ns/day, 8.549 hours/ns, 64.982 timesteps/s
76.5% CPU use with 32 MPI tasks x no OpenMP threads

MPI task timing breakdown:
Section |  min time  |  avg time  |  max time  |%varavg| %total
---------------------------------------------------------------
Pair    | 46.408     | 46.909     | 47.818     |   5.0 | 60.96
Neigh   | 0.11353    | 0.11707    | 0.12055    |   0.5 |  0.15
Comm    | 11.233     | 16.761     | 22.127     |  80.7 | 21.78
Output  | 0.027506   | 0.033871   | 0.036039   |   1.4 |  0.04
Modify  | 7.1146     | 12.243     | 17.218     |  92.7 | 15.91
Other   |            | 0.8809     |            |       |  1.14

Nlocal:    6050 ave 6098 max 5984 min
Histogram: 1 0 1 2 7 8 4 4 4 1
Nghost:    5892.5 ave 5958 max 5844 min
Histogram: 1 4 4 4 5 9 3 1 0 1
Neighs:    0 ave 0 max 0 min
Histogram: 32 0 0 0 0 0 0 0 0 0
FullNghs:  206000 ave 207614 max 203789 min
Histogram: 1 0 1 2 7 6 6 4 4 1

Total # of neighbors = 6591998
Ave neighs/atom = 34.0496
Neighbor list builds = 10
Dangerous builds = 0
unfix		NPT
variable	length equal lx/${LC}
variable	length equal lx/5.43

################### Geometrical Parameters After Relaxation ###############################
# Thermostat_width
variable	TW equal ${length}/40
variable	TW equal 48.4602695234931/40
# Hot_Start
variable	hs equal ${length}/4-${TW}
variable	hs equal 48.4602695234931/4-${TW}
variable	hs equal 48.4602695234931/4-1.21150673808733
# Hot_End
variable	he equal ${length}/4+${TW}
variable	he equal 48.4602695234931/4+${TW}
variable	he equal 48.4602695234931/4+1.21150673808733
# Cold_Start
variable	cs equal 3*${length}/4-${TW}
variable	cs equal 3*48.4602695234931/4-${TW}
variable	cs equal 3*48.4602695234931/4-1.21150673808733
# Cold_End
variable	ce equal 3*${length}/4+${TW}
variable	ce equal 3*48.4602695234931/4+${TW}
variable	ce equal 3*48.4602695234931/4+1.21150673808733
###########################################################################################

################### Defining Thermostat ###################################################
region 		hot block ${hs} ${he} EDGE EDGE EDGE EDGE
region 		hot block 10.9035606427859 ${he} EDGE EDGE EDGE EDGE
region 		hot block 10.9035606427859 13.3265741189606 EDGE EDGE EDGE EDGE
region 		cold block ${cs} ${ce} EDGE EDGE EDGE EDGE
region 		cold block 35.1336954045325 ${ce} EDGE EDGE EDGE EDGE
region 		cold block 35.1336954045325 37.5567088807072 EDGE EDGE EDGE EDGE
group		test region cold
9564 atoms in group test
group		test1 region hot
9555 atoms in group test1
compute		Thot all temp/region hot
compute         Tcold all temp/region cold
###########################################################################################

fix		NVT all nvt temp $T $T ${tdamp}
fix		NVT all nvt temp 300 $T ${tdamp}
fix		NVT all nvt temp 300 300 ${tdamp}
fix		NVT all nvt temp 300 300 0.05
thermo		1000
thermo_style	custom step temp
run		${tnvt}
run		40000
Per MPI rank memory allocation (min/avg/max) = 4.125 | 4.125 | 4.125 Mbytes
Step Temp 
    5001    299.73015 
    6000    299.82667 
    7000    299.13469 
    8000    297.66405 
    9000    302.29478 
   10000    301.30811 
   11000    299.46271 
   12000    300.69311 
   13000    299.47669 
   14000    301.51652 
   15000    300.30972 
   16000    298.81898 
   17000    298.99741 
   18000    299.29847 
   19000    299.47528 
   20000    299.78192 
   21000    299.28164 
   22000    300.98518 
   23000    299.09732 
   24000    299.89181 
   25000    300.84133 
   26000    299.61586 
   27000    299.24179 
   28000    300.30099 
   29000    299.70942 
   30000    299.97467 
   31000    299.89626 
   32000    299.34329 
   33000    299.41464 
   34000    298.89559 
   35000    301.14765 
   36000    298.87165 
   37000    300.72757 
   38000    299.59133 
   39000    301.66011 
   40000    301.32471 
   41000    298.57666 
   42000    298.47815 
   43000    299.11464 
   44000    300.06216 
   45000    300.29073 
   45001    300.22614 
Loop time of 600.389 on 32 procs for 40000 steps with 193600 atoms

Performance: 2.878 ns/day, 8.339 hours/ns, 66.623 timesteps/s
77.0% CPU use with 32 MPI tasks x no OpenMP threads

MPI task timing breakdown:
Section |  min time  |  avg time  |  max time  |%varavg| %total
---------------------------------------------------------------
Pair    | 369.44     | 376.17     | 384.59     |  15.4 | 62.65
Neigh   | 0          | 0          | 0          |   0.0 |  0.00
Comm    | 97.299     | 144.29     | 184.73     | 226.6 | 24.03
Output  | 0.02373    | 0.026117   | 0.028821   |   1.1 |  0.00
Modify  | 28.4       | 66.236     | 107.7      | 312.4 | 11.03
Other   |            | 13.67      |            |       |  2.28

Nlocal:    6050 ave 6106 max 6008 min
Histogram: 1 9 5 3 1 2 3 5 2 1
Nghost:    5892.41 ave 5934 max 5836 min
Histogram: 1 2 4 4 2 1 3 5 8 2
Neighs:    0 ave 0 max 0 min
Histogram: 32 0 0 0 0 0 0 0 0 0
FullNghs:  207196 ave 209230 max 205603 min
Histogram: 1 8 4 3 2 3 2 6 2 1

Total # of neighbors = 6630270
Ave neighs/atom = 34.2473
Neighbor list builds = 0
Dangerous builds = 0
velocity	all scale $T
velocity	all scale 300
unfix		NVT

fix		NVE all nve
fix		hot all langevin ${thi} ${thi} ${tdamp} 389516 tally yes
fix		hot all langevin 319.9225 ${thi} ${tdamp} 389516 tally yes
fix		hot all langevin 319.9225 319.9225 ${tdamp} 389516 tally yes
fix		hot all langevin 319.9225 319.9225 0.05 389516 tally yes
fix_modify	hot temp Thot
fix		cold all langevin ${tlo} ${tlo} ${tdamp} 46579 tally yes
fix		cold all langevin 280.0775 ${tlo} ${tdamp} 46579 tally yes
fix		cold all langevin 280.0775 280.0775 ${tdamp} 46579 tally yes
fix		cold all langevin 280.0775 280.0775 0.05 46579 tally yes
fix_modify	cold temp Tcold

thermo_style	custom step temp c_Thot c_Tcold f_hot f_cold
run		${t1nve}
run		100000
Per MPI rank memory allocation (min/avg/max) = 4.875 | 4.875 | 4.875 Mbytes
Step Temp c_Thot c_Tcold f_hot f_cold 
   45001          300    298.83782    298.46011           -0           -0 
   46000    299.38775    321.26807    285.26282   -67.867057    59.986865 
   47000    299.10602    314.39044    278.33016   -86.303638    97.004806 
   48000    299.35195    315.10945    279.72724   -101.32895    111.79786 
   49000    299.48906    316.39852    276.60533   -122.78399    132.71599 
   50000     300.0621    317.05644    280.60219   -143.18735     136.8042 
   51000    299.54822    316.98989    282.65776   -168.29431    158.84671 
   52000     300.1295    318.25425    278.47783    -189.0625    181.25994 
   53000    300.41135    324.09181    285.90294   -210.03978    194.34072 
   54000    301.28091    322.29359    282.38283   -231.16065     223.7121 
   55000    300.38534    318.05136    282.20531   -265.23752    257.60764 
   56000    300.71196    320.13306     284.1009   -293.03809    275.71057 
   57000     300.0044    319.38545    282.01766   -329.78348    302.98104 
   58000    300.70002    321.26699    280.36243   -348.24502    335.91854 
   59000    299.95571    321.14006     279.6132   -370.21617    357.24397 
   60000    299.71917    317.46872    283.57281   -396.27301    385.61967 
   61000    300.10714     315.0828    279.84479    -423.8102    417.34393 
   62000    300.83379    322.68519    279.00005   -453.28883    437.82288 
   63000    300.31459    323.43795    278.96213   -491.55003    473.60115 
   64000    299.86604    320.75126    282.53833   -513.57726    486.69122 
   65000    300.76981    323.41623    281.72795   -547.45224    509.72616 
   66000    300.80171    322.77228    285.48391   -566.08732    540.26495 
   67000    299.99154    319.69343    284.39188   -593.15354    571.86586 
   68000    299.65121    320.24007    278.36302   -617.77487    607.12014 
   69000    300.10668    320.89299    277.67941   -659.40401    642.10349 
   70000    299.99003    317.21424    280.82585   -681.69981    666.21893 
   71000    300.77303    323.97182    281.44508   -729.03354    689.32187 
   72000    299.95839    319.58501    282.99079   -747.08129    714.62732 
   73000    300.86945    315.50674    281.34618   -767.65711    743.85137 
   74000    299.83433    316.28368    277.30296   -802.47279    781.81917 
   75000    300.37334    318.82148    280.05352   -827.57762    811.69284 
   76000    300.46036    322.52005    282.69366   -874.05254    838.86486 
   77000    299.99567    319.07035    279.08852   -898.52592    883.54302 
   78000      300.273     321.3164    279.40979   -919.79748    898.61281 
   79000    300.05857    317.99913    281.42033   -949.70717    925.66562 
   80000    300.83258    322.07187    281.04457   -981.41705    950.38888 
   81000    300.67393    320.61537    281.65681   -1013.1725    977.24533 
   82000     300.5831    316.13267    278.62389    -1031.548    1006.8582 
   83000    299.77759    316.49009    280.81507   -1049.8412    1038.8664 
   84000    300.51882    318.01495     281.5852   -1089.3778    1066.0593 
   85000    300.84175    326.14073    281.06239   -1130.3168    1095.5854 
   86000    300.41489    318.00824    280.66907   -1148.0422    1123.9905 
   87000    300.66924    318.50397    282.54613   -1177.9817    1155.8743 
   88000    299.78639     317.5508    277.43805   -1207.5601    1187.9516 
   89000    299.59765     316.7494    279.89005   -1217.0056    1214.6416 
   90000    300.65515    319.24351    280.81402   -1250.1679    1243.1715 
   91000    300.42833    319.88774    280.11049   -1280.6021    1276.0267 
   92000    300.23531    320.07454    278.86092   -1315.9771    1301.9654 
   93000    300.11074    321.30243    277.82439   -1339.2985    1322.0095 
   94000    301.30719    319.63987    286.65098   -1365.5073    1337.4284 
   95000      300.965    318.55945    280.29638      -1406.3    1375.0016 
   96000    300.22935    318.71185      280.086   -1428.3834    1399.6998 
   97000    300.37853    314.51278    279.87143   -1450.5357    1442.8293 
   98000    300.49907    319.38013    280.56519   -1474.1782     1475.316 
   99000    300.06837    322.87761    281.31524   -1509.4403    1491.5435 
  100000    300.31681    317.25716     280.5462   -1530.7161    1515.0096 
  101000    300.04622    316.06189     283.8656   -1562.5885    1548.1062 
  102000    300.97969    321.22739    284.76938   -1605.8844     1574.614 
  103000    300.29818    319.66227    280.81809   -1627.5471    1618.0009 
  104000    300.22368    319.94828    282.35561   -1659.8866    1635.8466 
  105000    300.01372     317.3437    281.03214   -1688.2234    1672.2949 
  106000     299.9089    316.42571    282.88821   -1726.8788    1703.4059 
  107000    300.83376    320.08127    279.93506   -1765.0307    1741.7773 
  108000    299.58047    320.92614    282.89307   -1786.4123    1764.0738 
  109000    299.52141    318.62026    279.98904   -1812.9772    1797.1071 
  110000    301.07598    322.53739    284.86094   -1841.8744    1816.4981 
  111000    300.46867    318.88004    282.72809    -1869.784    1852.4089 
  112000    300.56303    319.45422    278.62598   -1897.5708     1890.105 
  113000    300.65975    315.94852    282.47013    -1924.605    1913.8743 
  114000    300.10448    319.95262    280.88478   -1951.7156     1947.118 
  115000    299.44296    318.59039    279.91059   -1989.4492    1973.8053 
  116000    300.34855    320.49194    281.37112   -2013.7799    2001.9575 
  117000    300.60347    318.39125    280.71867   -2053.4279    2029.5831 
  118000    300.37831     314.3519    281.95362   -2064.3633    2063.4149 
  119000    300.29665    317.56606    282.05882   -2108.6985    2098.2091 
  120000    300.19326    318.61404    283.10109   -2136.1817    2124.4855 
  121000    299.49342    317.90463    281.35873   -2172.9101    2158.5292 
  122000    300.65715    320.83512    280.27712   -2198.6529    2189.9021 
  123000    299.75977    318.36383    278.89291   -2221.0939    2223.7805 
  124000    300.48582    320.53598    281.69697   -2249.9792    2254.9438 
  125000    300.15163    319.75357    279.16682   -2277.1794    2280.0188 
  126000    299.55918    317.77995    278.60644    -2297.372    2308.9092 
  127000    299.76899    315.43358    280.89915   -2326.2183    2328.3535 
  128000    299.36733    314.30476    282.26082   -2359.4488    2354.3137 
  129000    299.96124    318.13153    279.28824   -2384.2478    2397.4458 
  130000    300.12093    318.00755    278.60919    -2416.133    2421.6185 
  131000    298.85754    316.49241     278.8821   -2447.6149    2452.9951 
  132000    299.92156    318.40946    281.33099   -2474.4723    2477.2944 
  133000    300.02209    316.58876    281.44941   -2506.0644     2495.945 
  134000    299.57266    318.42668    280.34103   -2531.0383    2541.6813 
  135000    299.32286    316.26672    279.39019   -2552.5909    2566.5456 
  136000    299.62085    317.19072    284.29759   -2594.2269    2585.9873 
  137000     300.0549    319.31353    281.87796   -2615.5675    2610.8899 
  138000    300.30435     324.4858     282.8925   -2648.1316    2637.3787 
  139000    299.98009    321.78433    282.05231   -2670.8507    2670.6057 
  140000    300.66062    322.01423    283.21052    -2706.511    2685.4796 
  141000     299.8837    318.09701    278.98297   -2730.0542    2731.0699 
  142000    300.00862    315.39996    287.23166    -2750.775    2752.7151 
  143000    299.78909    322.45058    282.28057   -2790.6581    2790.9288 
  144000    299.56599    315.88682    280.35048   -2806.1443     2812.918 
  145000    299.59659     321.3012    281.07208   -2840.7435    2844.3372 
  145001    299.60774    321.19588    281.61278   -2840.6922    2843.6776 
Loop time of 1639.51 on 32 procs for 100000 steps with 193600 atoms

Performance: 2.635 ns/day, 9.108 hours/ns, 60.994 timesteps/s
77.6% CPU use with 32 MPI tasks x no OpenMP threads

MPI task timing breakdown:
Section |  min time  |  avg time  |  max time  |%varavg| %total
---------------------------------------------------------------
Pair    | 934.44     | 946.33     | 971.33     |  27.1 | 57.72
Neigh   | 0          | 0          | 0          |   0.0 |  0.00
Comm    | 249.87     | 367.45     | 475.24     | 345.9 | 22.41
Output  | 0.097679   | 0.1075     | 0.11069    |   1.0 |  0.01
Modify  | 185.23     | 291.3      | 394.23     | 377.2 | 17.77
Other   |            | 34.31      |            |       |  2.09

Nlocal:    6050 ave 6092 max 6019 min
Histogram: 4 4 4 4 2 6 3 1 2 2
Nghost:    5892.34 ave 5923 max 5849 min
Histogram: 2 1 2 3 5 2 3 6 4 4
Neighs:    0 ave 0 max 0 min
Histogram: 32 0 0 0 0 0 0 0 0 0
FullNghs:  207281 ave 208786 max 206234 min
Histogram: 5 5 5 2 3 4 3 2 1 2

Total # of neighbors = 6632988
Ave neighs/atom = 34.2613
Neighbor list builds = 0
Dangerous builds = 0

# thermal conductivity calculation
# reset langevin thermostats to zero energy accumulation
reset_timestep 0
thermo		$c
thermo		500000
compute		ke all ke/atom
variable	temp atom c_ke/1.5/8.617332478e-5
fix		hot all langevin ${thi} ${thi} ${tdamp} 389516 tally yes
fix		hot all langevin 319.9225 ${thi} ${tdamp} 389516 tally yes
fix		hot all langevin 319.9225 319.9225 ${tdamp} 389516 tally yes
fix		hot all langevin 319.9225 319.9225 0.05 389516 tally yes
fix_modify	hot temp Thot
fix		cold all langevin ${tlo} ${tlo} ${tdamp} 46579 tally yes
fix		cold all langevin 280.0775 ${tlo} ${tdamp} 46579 tally yes
fix		cold all langevin 280.0775 280.0775 ${tdamp} 46579 tally yes
fix		cold all langevin 280.0775 280.0775 0.05 46579 tally yes
fix_modify	cold temp Tcold

compute		ch all chunk/atom bin/1d x lower 0.02 units reduced
fix		11 all ave/chunk $a $b $c ch v_temp file sw_${P}.langevin
fix		11 all ave/chunk 100 $b $c ch v_temp file sw_${P}.langevin
fix		11 all ave/chunk 100 5000 $c ch v_temp file sw_${P}.langevin
fix		11 all ave/chunk 100 5000 500000 ch v_temp file sw_${P}.langevin
fix		11 all ave/chunk 100 5000 500000 ch v_temp file sw_35.langevin
thermo_style	custom step temp c_Thot c_Tcold f_hot f_cold

run		${t2nve}
run		500000
Per MPI rank memory allocation (min/avg/max) = 5.125 | 5.125 | 5.125 Mbytes
Step Temp c_Thot c_Tcold f_hot f_cold 
       0    299.60774    321.08497     281.4208           -0           -0 
  500000    300.36172    320.95006    283.24146    -14164.09    14141.174 
Loop time of 8229.91 on 32 procs for 500000 steps with 193600 atoms

Performance: 2.625 ns/day, 9.144 hours/ns, 60.754 timesteps/s
77.2% CPU use with 32 MPI tasks x no OpenMP threads

MPI task timing breakdown:
Section |  min time  |  avg time  |  max time  |%varavg| %total
---------------------------------------------------------------
Pair    | 4637.5     | 4732.3     | 4853.2     |  61.2 | 57.50
Neigh   | 0          | 0          | 0          |   0.0 |  0.00
Comm    | 1231.8     | 1871.6     | 2409.1     | 787.3 | 22.74
Output  | 0.051117   | 0.1726     | 0.27055    |  23.8 |  0.00
Modify  | 953.92     | 1462.1     | 1988.1     | 857.9 | 17.77
Other   |            | 163.7      |            |       |  1.99

Nlocal:    6050 ave 6112 max 6008 min
Histogram: 3 1 7 7 6 5 0 1 0 2
Nghost:    5890.78 ave 5934 max 5831 min
Histogram: 2 0 1 3 4 5 9 4 1 3
Neighs:    0 ave 0 max 0 min
Histogram: 32 0 0 0 0 0 0 0 0 0
FullNghs:  207341 ave 209545 max 205801 min
Histogram: 2 2 6 7 5 5 2 1 0 2

Total # of neighbors = 6634912
Ave neighs/atom = 34.2712
Neighbor list builds = 0
Dangerous builds = 0
clear
next		P
jump		Si.in
 units       metal
#----------------------------- User Input Variables --------------------------------------
################### Geometrical Parameters ###############################
variable	P index 33 34 35 36
variable	W equal 22
# Lattice Constant
variable	LC equal 5.43
# Length
variable	L equal 50
# Width
#variable	W equal 6
# Height
variable	H equal ${W}
variable	H equal 22
################### Simulation Condition ###############################
#DT/DX=cte
variable	cte equal 1.5938
log         sw_${P}.log
log         sw_36.log
