# temperature
variable	T equal 300
#cold region temperature
#variable        tlo equal 275
variable        tlo equal ${T}-${L}*${cte}/4.0
variable        tlo equal 300-${L}*${cte}/4.0
variable        tlo equal 300-50*${cte}/4.0
variable        tlo equal 300-50*1.5938/4.0
#hot region temperature
#variable        thi equal ${cte}*${L}/2+${tlo}
variable        thi equal ${T}+${L}*${cte}/4.0
variable        thi equal 300+${L}*${cte}/4.0
variable        thi equal 300+50*${cte}/4.0
variable        thi equal 300+50*1.5938/4.0

#time step (picoseconds)
variable	dt equal 0.0005 # 0.5 femtoseconds
#number of time steps for NPT
variable	tnpt equal 5000
#number of time steps for NVT
variable	tnvt equal 40000
#number of time steps for first NVE
variable	t1nve equal 100000
#number of time steps for second NVE
variable	t2nve equal 500000

################### Variable Based on LAMMPS Documentation ######################
variable	a equal 100
variable	c equal ${t2nve}
variable	c equal 500000
variable	b equal $c/$a
variable	b equal 500000/$a
variable	b equal 500000/100
variable	tdamp equal ${dt}*100
variable	tdamp equal 0.0005*100
variable	pdamp equal ${dt}*1000
variable	pdamp equal 0.0005*1000

#----------------------------------------------------------------------------------------
# setup problem
dimension       3
boundary        p p p
atom_style      atomic
lattice 	diamond ${LC} origin 0.0 0.0 0.0 orient x 1 0 0 orient y 0 1 0 orient z 0 0 1
lattice 	diamond 5.43 origin 0.0 0.0 0.0 orient x 1 0 0 orient y 0 1 0 orient z 0 0 1
Lattice spacing in x,y,z = 5.43 5.43 5.43
region          0 block 0 $L 0 $W 0 $H units lattice side in
region          0 block 0 50 0 $W 0 $H units lattice side in
region          0 block 0 50 0 22 0 $H units lattice side in
region          0 block 0 50 0 22 0 22 units lattice side in
create_box      1 0
Created orthogonal box = (0 0 0) to (271.5 119.46 119.46)
  8 by 2 by 2 MPI processor grid
create_atoms    1 region 0
Created 193600 atoms
mass		1 28.0855
#dump		1 all xyz 1000 Si_W_${W}nm.xyz
#dump_modify	1 element Si

############################################
pair_style   sw
pair_coeff   * * Si${P}.sw Si
pair_coeff   * * Si32.sw Si
thermo		100
thermo_style custom step lx
min_style cg
minimize 0.0 1.0e-8 10000 100000
WARNING: Using 'neigh_modify every 1 delay 0 check yes' setting during minimization (../min.cpp:168)
Neighbor list info ...
  update every 1 steps, delay 0 steps, check yes
  max neighbors/atom: 2000, page size: 100000
  master list distance cutoff = 5.5153
  ghost atom cutoff = 5.5153
  binsize = 2.75765, bins = 99 44 44
  1 neighbor lists, perpetual/occasional/extra = 1 0 0
  (1) pair sw, perpetual
      attributes: full, newton on
      pair build: full/bin/atomonly
      stencil: full/bin/3d
      bin: standard
Per MPI rank memory allocation (min/avg/max) = 5.246 | 5.246 | 5.246 Mbytes
Step Lx 
       0        271.5 
       1        271.5 
Loop time of 0.0410452 on 32 procs for 1 steps with 193600 atoms

75.7% CPU use with 32 MPI tasks x no OpenMP threads

Minimization stats:
  Stopping criterion = force tolerance
  Energy initial, next-to-last, final = 
        -616772.746229     -616772.746229     -616772.746229
  Force two-norm initial, final = 7.31151e-11 7.30672e-11
  Force max component initial, final = 4.22629e-13 4.25104e-13
  Final line search alpha, max atom move = 1 4.25104e-13
  Iterations, force evaluations = 1 2

MPI task timing breakdown:
Section |  min time  |  avg time  |  max time  |%varavg| %total
---------------------------------------------------------------
Pair    | 0.024231   | 0.024624   | 0.025431   |   0.1 | 59.99
Neigh   | 0          | 0          | 0          |   0.0 |  0.00
Comm    | 0.006182   | 0.0097107  | 0.012847   |   1.9 | 23.66
Output  | 0          | 0          | 0          |   0.0 |  0.00
Modify  | 0          | 0          | 0          |   0.0 |  0.00
Other   |            | 0.00671    |            |       | 16.35

Nlocal:    6050 ave 6050 max 6050 min
Histogram: 32 0 0 0 0 0 0 0 0 0
Nghost:    5892.5 ave 5893 max 5892 min
Histogram: 16 0 0 0 0 0 0 0 0 16
Neighs:    0 ave 0 max 0 min
Histogram: 32 0 0 0 0 0 0 0 0 0
FullNghs:  205700 ave 205700 max 205700 min
Histogram: 32 0 0 0 0 0 0 0 0 0

Total # of neighbors = 6582400
Ave neighs/atom = 34
Neighbor list builds = 0
Dangerous builds = 0
timestep     ${dt}
timestep     0.0005
velocity 	all create $T 492845
velocity 	all create 300 492845


fix 		NPT all npt temp $T $T ${tdamp} iso 0.0 0.0 ${pdamp}
fix 		NPT all npt temp 300 $T ${tdamp} iso 0.0 0.0 ${pdamp}
fix 		NPT all npt temp 300 300 ${tdamp} iso 0.0 0.0 ${pdamp}
fix 		NPT all npt temp 300 300 0.05 iso 0.0 0.0 ${pdamp}
fix 		NPT all npt temp 300 300 0.05 iso 0.0 0.0 0.5
thermo		100
thermo_style custom step lx press
run		${tnpt}
run		5000
Per MPI rank memory allocation (min/avg/max) = 4.121 | 4.121 | 4.121 Mbytes
Step Lx Press 
       1        271.5   -101324.86 
     100    266.85008   -56165.029 
     200    264.17167   -24068.194 
     300    262.80408   -7383.1334 
     400    262.30261   -92.182288 
     500    262.26963   -153.33151 
     600    262.29019   -135.98363 
     700    262.27566    418.49873 
     800    262.29572   -271.67412 
     900    262.31213    45.064821 
    1000    262.29037    254.56029 
    1100    262.33377   -296.70791 
    1200    262.30741    247.06033 
    1300    262.33833   -117.87318 
    1400    262.32087    44.430391 
    1500    262.34312   -35.756648 
    1600    262.32693    51.404347 
    1700    262.33498   -95.541081 
    1800    262.33394    48.216882 
    1900    262.32411   -6.5114799 
    2000    262.33756   -66.613207 
    2100    262.32765    91.959519 
    2200    262.33524   -131.07402 
    2300    262.33084     93.40746 
    2400    262.33093   -45.820167 
    2500    262.33062   -12.382343 
    2600    262.32888    57.923934 
    2700    262.33251   -52.744196 
    2800    262.32931    20.999219 
    2900    262.33244    14.167998 
    3000     262.3296   -25.885045 
    3100     262.3295    17.463484 
    3200    262.33237    11.545746 
    3300    262.32981   -16.928531 
    3400    262.33159    14.921194 
    3500    262.32852    4.2275625 
    3600    262.32819   -7.5618092 
    3700     262.3293    30.279062 
    3800    262.33475   -10.143679 
    3900    262.32663    3.1532945 
    4000    262.32649    17.028814 
    4100    262.33061    24.408229 
    4200    262.33234   -34.517771 
    4300    262.32413    48.728569 
    4400    262.33285    13.725951 
    4500    262.33199   -35.726082 
    4600    262.31936    64.695253 
    4700    262.33844   -56.037166 
    4800    262.32327    42.821635 
    4900     262.3276   -12.579396 
    5000    262.33725   -20.929486 
    5001    262.33738   -23.566113 
Loop time of 79.2369 on 32 procs for 5000 steps with 193600 atoms

Performance: 2.726 ns/day, 8.804 hours/ns, 63.102 timesteps/s
74.5% CPU use with 32 MPI tasks x no OpenMP threads

MPI task timing breakdown:
Section |  min time  |  avg time  |  max time  |%varavg| %total
---------------------------------------------------------------
Pair    | 45.008     | 45.715     | 48.178     |   7.7 | 57.69
Neigh   | 0.11676    | 0.12299    | 0.12696    |   0.6 |  0.16
Comm    | 11.52      | 18.743     | 24.492     |  78.2 | 23.65
Output  | 0.028336   | 0.032076   | 0.035528   |   1.0 |  0.04
Modify  | 7.6242     | 13.672     | 20.595     |  95.6 | 17.25
Other   |            | 0.9518     |            |       |  1.20

Nlocal:    6050 ave 6107 max 5986 min
Histogram: 1 0 0 6 9 7 2 4 2 1
Nghost:    5892.41 ave 5955 max 5835 min
Histogram: 1 2 3 3 5 11 6 0 0 1
Neighs:    0 ave 0 max 0 min
Histogram: 32 0 0 0 0 0 0 0 0 0
FullNghs:  205917 ave 207894 max 203758 min
Histogram: 1 0 0 6 10 6 4 2 2 1

Total # of neighbors = 6589346
Ave neighs/atom = 34.0359
Neighbor list builds = 11
Dangerous builds = 0
unfix		NPT
variable	length equal lx/${LC}
variable	length equal lx/5.43

################### Geometrical Parameters After Relaxation ###############################
# Thermostat_width
variable	TW equal ${length}/40
variable	TW equal 48.3125933378947/40
# Hot_Start
variable	hs equal ${length}/4-${TW}
variable	hs equal 48.3125933378947/4-${TW}
variable	hs equal 48.3125933378947/4-1.20781483344737
# Hot_End
variable	he equal ${length}/4+${TW}
variable	he equal 48.3125933378947/4+${TW}
variable	he equal 48.3125933378947/4+1.20781483344737
# Cold_Start
variable	cs equal 3*${length}/4-${TW}
variable	cs equal 3*48.3125933378947/4-${TW}
variable	cs equal 3*48.3125933378947/4-1.20781483344737
# Cold_End
variable	ce equal 3*${length}/4+${TW}
variable	ce equal 3*48.3125933378947/4+${TW}
variable	ce equal 3*48.3125933378947/4+1.20781483344737
###########################################################################################

################### Defining Thermostat ###################################################
region 		hot block ${hs} ${he} EDGE EDGE EDGE EDGE
region 		hot block 10.8703335010263 ${he} EDGE EDGE EDGE EDGE
region 		hot block 10.8703335010263 13.285963167921 EDGE EDGE EDGE EDGE
region 		cold block ${cs} ${ce} EDGE EDGE EDGE EDGE
region 		cold block 35.0266301699737 ${ce} EDGE EDGE EDGE EDGE
region 		cold block 35.0266301699737 37.4422598368684 EDGE EDGE EDGE EDGE
group		test region cold
9565 atoms in group test
group		test1 region hot
9572 atoms in group test1
compute		Thot all temp/region hot
compute         Tcold all temp/region cold
###########################################################################################

fix		NVT all nvt temp $T $T ${tdamp}
fix		NVT all nvt temp 300 $T ${tdamp}
fix		NVT all nvt temp 300 300 ${tdamp}
fix		NVT all nvt temp 300 300 0.05
thermo		1000
thermo_style	custom step temp
run		${tnvt}
run		40000
Per MPI rank memory allocation (min/avg/max) = 4.125 | 4.125 | 4.125 Mbytes
Step Temp 
    5001    305.22876 
    6000    298.67445 
    7000    300.43902 
    8000    299.77497 
    9000    301.26105 
   10000    299.70332 
   11000    300.67247 
   12000    299.16389 
   13000    300.77027 
   14000    300.07946 
   15000    299.78794 
   16000    300.93928 
   17000    299.69254 
   18000    300.29225 
   19000    300.67191 
   20000    299.31188 
   21000    300.37994 
   22000    300.56696 
   23000     300.0279 
   24000    300.01552 
   25000    299.00561 
   26000    298.94315 
   27000    300.79927 
   28000    300.35814 
   29000    300.89665 
   30000    300.17937 
   31000    300.50988 
   32000    299.60088 
   33000    300.17327 
   34000    301.20604 
   35000    300.45441 
   36000    298.88812 
   37000    299.90173 
   38000    299.54639 
   39000    299.30256 
   40000    300.76606 
   41000    300.16067 
   42000    299.32171 
   43000    300.53167 
   44000    299.19417 
   45000      300.093 
   45001     300.1293 
Loop time of 599.963 on 32 procs for 40000 steps with 193600 atoms

Performance: 2.880 ns/day, 8.333 hours/ns, 66.671 timesteps/s
75.9% CPU use with 32 MPI tasks x no OpenMP threads

MPI task timing breakdown:
Section |  min time  |  avg time  |  max time  |%varavg| %total
---------------------------------------------------------------
Pair    | 358.74     | 365.66     | 372.49     |  15.9 | 60.95
Neigh   | 0          | 0          | 0          |   0.0 |  0.00
Comm    | 106.25     | 149.9      | 187.02     | 213.0 | 24.98
Output  | 0.02144    | 0.023113   | 0.02668    |   0.6 |  0.00
Modify  | 36.184     | 70.506     | 110.62     | 304.5 | 11.75
Other   |            | 13.87      |            |       |  2.31

Nlocal:    6050 ave 6098 max 6003 min
Histogram: 4 1 1 1 8 5 8 3 0 1
Nghost:    5890.75 ave 5937 max 5843 min
Histogram: 1 0 4 7 5 8 0 2 1 4
Neighs:    0 ave 0 max 0 min
Histogram: 32 0 0 0 0 0 0 0 0 0
FullNghs:  206838 ave 208611 max 205088 min
Histogram: 4 1 1 1 5 8 8 3 0 1

Total # of neighbors = 6618800
Ave neighs/atom = 34.188
Neighbor list builds = 0
Dangerous builds = 0
velocity	all scale $T
velocity	all scale 300
unfix		NVT

fix		NVE all nve
fix		hot all langevin ${thi} ${thi} ${tdamp} 389516 tally yes
fix		hot all langevin 319.9225 ${thi} ${tdamp} 389516 tally yes
fix		hot all langevin 319.9225 319.9225 ${tdamp} 389516 tally yes
fix		hot all langevin 319.9225 319.9225 0.05 389516 tally yes
fix_modify	hot temp Thot
fix		cold all langevin ${tlo} ${tlo} ${tdamp} 46579 tally yes
fix		cold all langevin 280.0775 ${tlo} ${tdamp} 46579 tally yes
fix		cold all langevin 280.0775 280.0775 ${tdamp} 46579 tally yes
fix		cold all langevin 280.0775 280.0775 0.05 46579 tally yes
fix_modify	cold temp Tcold

thermo_style	custom step temp c_Thot c_Tcold f_hot f_cold
run		${t1nve}
run		100000
Per MPI rank memory allocation (min/avg/max) = 4.875 | 4.875 | 4.875 Mbytes
Step Temp c_Thot c_Tcold f_hot f_cold 
   45001          300    302.21114    297.83062           -0           -0 
   46000    299.55265    314.53144    284.23501   -64.269425    63.165848 
   47000    300.23038    318.72377    282.98973   -86.047289    85.666072 
   48000    300.72488    318.67096    280.44332   -107.56871    106.32421 
   49000    300.01335    316.24517    274.55374   -124.34008    126.02656 
   50000    300.10435    319.21694    281.70375    -136.5239    125.70772 
   51000    299.66425     324.2824    277.74101   -162.53179    152.44649 
   52000    299.46601    312.35375    280.47907    -169.1137    166.24711 
   53000    300.50172    319.36222    280.68596   -208.49073    181.24299 
   54000    300.08239    320.85803    280.55617   -226.49989    196.83713 
   55000    300.98597    327.24154    283.65346   -244.90097    212.02511 
   56000    300.57953    318.92053    279.70531   -256.57002    231.32128 
   57000    301.13347     316.3438    280.45437   -287.51355    256.68531 
   58000    300.75913    318.38124    279.72466   -313.13045     279.6945 
   59000    300.97236    316.80859    282.54071   -339.19532    294.62112 
   60000    300.44901    320.46914    281.62908   -363.94653    330.14983 
   61000    301.08944     316.0757    282.10084    -382.5837     359.2245 
   62000    300.47925    319.93268     282.8628   -404.73757    380.87642 
   63000    300.40426    321.11669    281.96204   -419.01191    402.38833 
   64000     299.8041    318.75516    278.77325   -434.16395    432.83152 
   65000    300.50668    318.45878    280.97209   -456.33542     451.9846 
   66000    300.53279    318.64637    281.57005   -487.45007    469.39385 
   67000    300.34203    318.89874    280.35343   -507.14247     495.7885 
   68000    300.18123    316.03257    283.61404   -521.24822    512.55855 
   69000    299.62289    314.62503    279.29312   -538.79944    544.57147 
   70000    300.22517    321.28758    283.36218    -569.9496    566.04321 
   71000      299.591     321.4096    283.62172   -601.68489     600.0515 
   72000    300.01423    322.97372    281.53004   -617.49175    628.46687 
   73000    299.81768    318.54649    276.39575    -631.2697    651.03488 
   74000    300.05947    318.06979    282.08065   -655.44608    659.85969 
   75000    300.18075    321.15537    283.77082   -683.99629    678.22322 
   76000    299.20784    316.45681     280.0156   -692.30876    717.28273 
   77000    299.93441    312.70383    278.61329   -720.39669    732.73838 
   78000    299.36219    317.52615    282.26663   -742.31773    744.61032 
   79000    299.87104    316.56056    284.26433    -762.7718    765.57526 
   80000    300.84093    322.99218    281.88005   -800.18086     787.4441 
   81000    299.13415     319.3949     276.1052   -808.18396    818.59285 
   82000    300.80622    321.07825    286.42217   -841.36327    832.20119 
   83000    298.33786    320.86969    277.54323   -852.12115    867.19511 
   84000    300.21162    319.06437    284.99418   -875.94969    881.46238 
   85000    300.00279    318.51878    281.29827   -895.84013    908.65952 
   86000    300.29342    323.52637    282.30604   -928.56834    931.08237 
   87000    299.18849    321.78243    282.02106   -949.26074    956.46552 
   88000    300.09063    319.01067    281.95633   -971.12175    971.43781 
   89000    299.19884    321.84053    280.83958   -997.92653     996.7159 
   90000    299.51248    316.94211    282.59537   -1013.6229    1032.4625 
   91000    299.66765    322.03232     283.5352   -1044.8045    1056.6308 
   92000    299.15164    318.02593    282.33226   -1069.9323    1082.0306 
   93000    299.85011    318.89773    280.07284   -1098.4013    1108.5665 
   94000    299.93352    317.72567    279.26098   -1120.8466    1134.0382 
   95000    299.92207    320.44606    281.40888   -1145.0429    1160.6465 
   96000    299.23776    319.35329    282.49785    -1172.469    1183.2692 
   97000    299.73834    314.83514    285.56011   -1196.3496    1198.3395 
   98000    299.02281    317.04546    280.60544   -1222.8995    1231.0732 
   99000    300.06265    315.64314     285.4777   -1241.5156    1261.5339 
  100000    299.27625    319.06961     279.3646   -1269.1761    1291.2432 
  101000    299.97399    322.73166    283.90979   -1304.1349    1310.6054 
  102000    299.81953    318.74862    280.20722   -1327.5564    1339.3886 
  103000    298.92549    317.75383    277.55761   -1355.7957    1366.9229 
  104000     300.4398     319.9815    283.04021   -1384.5607    1388.9179 
  105000    299.90796     315.7143    281.84547   -1403.9686    1417.5203 
  106000    299.53804    317.23933     278.8487   -1431.6971    1449.3457 
  107000    299.58673    312.89906     279.4491   -1459.7456    1470.1034 
  108000    299.77168    315.10285     284.1222   -1476.3471     1487.501 
  109000    299.64852    315.50822    282.11018   -1492.0799    1511.4971 
  110000    299.06906    316.41668    282.24612   -1519.6988    1541.2457 
  111000    299.47351    315.48226    280.55855   -1546.5415    1572.5714 
  112000    299.45582     320.0896    276.44154   -1561.4058     1599.824 
  113000    299.72138    319.98755    279.95621   -1602.6654    1615.0887 
  114000     299.3145    319.23305    279.85236   -1623.3379    1636.0974 
  115000    299.97548    320.24931    283.45024   -1647.4321    1656.6639 
  116000    299.52039    318.90767    277.72417   -1661.8054    1686.0188 
  117000    300.20778    320.26994    280.86202   -1694.1174    1706.7509 
  118000    299.22931    318.20001    284.24533   -1703.2985    1730.2547 
  119000    299.79726    319.23446      284.392   -1742.5704    1749.1652 
  120000    299.93517    322.23882    282.70159   -1767.8867    1769.2755 
  121000    299.88469    318.21312    280.45122   -1794.4892    1804.7942 
  122000     299.8964    318.75819    281.82696    -1819.408    1829.6577 
  123000    299.66798    321.02496     280.4688   -1849.5349    1857.0116 
  124000    298.96232    321.02601     283.0174   -1870.0865    1880.5135 
  125000    299.90999    315.30957    280.83393   -1885.0888     1904.395 
  126000    299.63775    319.77866    283.96997   -1906.5313    1921.1823 
  127000    299.86826    320.59867     278.5052   -1939.6679    1951.4612 
  128000    299.49724    315.17946    282.41202   -1966.0695     1968.209 
  129000    300.11925     321.3785     281.7375   -2007.7076    1993.6703 
  130000    299.92115    315.43112    280.31211   -2014.8222    2019.8247 
  131000     300.3731    316.85455    280.77853   -2039.9907    2047.0696 
  132000    299.20524    317.96236    283.83789   -2070.3298    2068.3378 
  133000    300.72709    314.55457    279.31316   -2093.4239    2088.3537 
  134000    300.88458    321.41471    282.56079   -2134.4066    2115.8138 
  135000    300.28062     317.8388    281.16261   -2151.8957    2136.7644 
  136000    299.51366    319.23647    274.77793    -2168.942    2173.0182 
  137000    300.87748     322.9642    282.20297   -2192.5342    2179.4863 
  138000    300.21738    318.57322    279.63923   -2218.3246    2210.8707 
  139000    300.40071    322.40375     281.4029   -2248.0118    2221.1548 
  140000    300.34066    320.37372     282.6061   -2274.4808    2245.7155 
  141000    300.35486    319.42298    280.75632   -2294.9926    2268.1997 
  142000     301.3129    324.83674    283.73532    -2316.919    2292.1118 
  143000    299.68837    314.22064    277.59534   -2326.4318    2324.4846 
  144000    300.44933      315.409    284.04112    -2345.209    2338.2674 
  145000    300.66125    317.02269    280.56532   -2379.8555    2369.4348 
  145001    300.64542    316.22653    280.84613   -2379.1807    2369.4374 
Loop time of 1625.32 on 32 procs for 100000 steps with 193600 atoms

Performance: 2.658 ns/day, 9.030 hours/ns, 61.526 timesteps/s
76.6% CPU use with 32 MPI tasks x no OpenMP threads

MPI task timing breakdown:
Section |  min time  |  avg time  |  max time  |%varavg| %total
---------------------------------------------------------------
Pair    | 905.38     | 922.92     | 945.11     |  23.9 | 56.78
Neigh   | 0          | 0          | 0          |   0.0 |  0.00
Comm    | 268.77     | 372.5      | 467.15     | 332.3 | 22.92
Output  | 0.099031   | 0.10374    | 0.10746    |   0.8 |  0.01
Modify  | 202.45     | 299.86     | 406.11     | 381.9 | 18.45
Other   |            | 29.93      |            |       |  1.84

Nlocal:    6050 ave 6106 max 6005 min
Histogram: 2 1 6 6 4 6 4 1 0 2
Nghost:    5890.62 ave 5934 max 5837 min
Histogram: 2 0 2 2 7 4 7 5 1 2
Neighs:    0 ave 0 max 0 min
Histogram: 32 0 0 0 0 0 0 0 0 0
FullNghs:  206974 ave 209012 max 205263 min
Histogram: 1 1 5 6 6 5 6 0 0 2

Total # of neighbors = 6623178
Ave neighs/atom = 34.2106
Neighbor list builds = 0
Dangerous builds = 0

# thermal conductivity calculation
# reset langevin thermostats to zero energy accumulation
reset_timestep 0
thermo		$c
thermo		500000
compute		ke all ke/atom
variable	temp atom c_ke/1.5/8.617332478e-5
fix		hot all langevin ${thi} ${thi} ${tdamp} 389516 tally yes
fix		hot all langevin 319.9225 ${thi} ${tdamp} 389516 tally yes
fix		hot all langevin 319.9225 319.9225 ${tdamp} 389516 tally yes
fix		hot all langevin 319.9225 319.9225 0.05 389516 tally yes
fix_modify	hot temp Thot
fix		cold all langevin ${tlo} ${tlo} ${tdamp} 46579 tally yes
fix		cold all langevin 280.0775 ${tlo} ${tdamp} 46579 tally yes
fix		cold all langevin 280.0775 280.0775 ${tdamp} 46579 tally yes
fix		cold all langevin 280.0775 280.0775 0.05 46579 tally yes
fix_modify	cold temp Tcold

compute		ch all chunk/atom bin/1d x lower 0.02 units reduced
fix		11 all ave/chunk $a $b $c ch v_temp file sw_${P}.langevin
fix		11 all ave/chunk 100 $b $c ch v_temp file sw_${P}.langevin
fix		11 all ave/chunk 100 5000 $c ch v_temp file sw_${P}.langevin
fix		11 all ave/chunk 100 5000 500000 ch v_temp file sw_${P}.langevin
fix		11 all ave/chunk 100 5000 500000 ch v_temp file sw_32.langevin
thermo_style	custom step temp c_Thot c_Tcold f_hot f_cold

run		${t2nve}
run		500000
Per MPI rank memory allocation (min/avg/max) = 5.125 | 5.125 | 5.125 Mbytes
Step Temp c_Thot c_Tcold f_hot f_cold 
       0    300.64542    316.64952    280.85072           -0           -0 
  500000    300.79958    322.40756    280.91072   -11941.936    11949.751 
Loop time of 8136.68 on 32 procs for 500000 steps with 193600 atoms

Performance: 2.655 ns/day, 9.041 hours/ns, 61.450 timesteps/s
76.7% CPU use with 32 MPI tasks x no OpenMP threads

MPI task timing breakdown:
Section |  min time  |  avg time  |  max time  |%varavg| %total
---------------------------------------------------------------
Pair    | 4541.3     | 4619.7     | 4687.9     |  50.3 | 56.78
Neigh   | 0          | 0          | 0          |   0.0 |  0.00
Comm    | 1270.3     | 1871.9     | 2358.2     | 775.4 | 23.01
Output  | 0.000898   | 0.0019071  | 0.002047   |   0.4 |  0.00
Modify  | 1028.7     | 1488.8     | 2010.9     | 865.4 | 18.30
Other   |            | 156.3      |            |       |  1.92

Nlocal:    6050 ave 6095 max 6011 min
Histogram: 2 3 6 4 4 1 5 4 1 2
Nghost:    5889.56 ave 5928 max 5846 min
Histogram: 2 1 4 5 0 5 5 5 3 2
Neighs:    0 ave 0 max 0 min
Histogram: 32 0 0 0 0 0 0 0 0 0
FullNghs:  207022 ave 208712 max 205647 min
Histogram: 3 4 5 4 4 0 5 4 2 1

Total # of neighbors = 6624704
Ave neighs/atom = 34.2185
Neighbor list builds = 0
Dangerous builds = 0
clear
next		P
jump		Si.in
Total wall time: 26:30:37
