# temperature
variable	T equal 300
#cold region temperature
#variable        tlo equal 275
variable        tlo equal ${T}-${L}*${cte}/4.0
variable        tlo equal 300-${L}*${cte}/4.0
variable        tlo equal 300-50*${cte}/4.0
variable        tlo equal 300-50*1.5938/4.0
#hot region temperature
#variable        thi equal ${cte}*${L}/2+${tlo}
variable        thi equal ${T}+${L}*${cte}/4.0
variable        thi equal 300+${L}*${cte}/4.0
variable        thi equal 300+50*${cte}/4.0
variable        thi equal 300+50*1.5938/4.0

#time step (picoseconds)
variable	dt equal 0.0005 # 0.5 femtoseconds
#number of time steps for NPT
variable	tnpt equal 5000
#number of time steps for NVT
variable	tnvt equal 40000
#number of time steps for first NVE
variable	t1nve equal 100000
#number of time steps for second NVE
variable	t2nve equal 500000

################### Variable Based on LAMMPS Documentation ######################
variable	a equal 100
variable	c equal ${t2nve}
variable	c equal 500000
variable	b equal $c/$a
variable	b equal 500000/$a
variable	b equal 500000/100
variable	tdamp equal ${dt}*100
variable	tdamp equal 0.0005*100
variable	pdamp equal ${dt}*1000
variable	pdamp equal 0.0005*1000

#----------------------------------------------------------------------------------------
# setup problem
dimension       3
boundary        p p p
atom_style      atomic
lattice 	diamond ${LC} origin 0.0 0.0 0.0 orient x 1 0 0 orient y 0 1 0 orient z 0 0 1
lattice 	diamond 5.43 origin 0.0 0.0 0.0 orient x 1 0 0 orient y 0 1 0 orient z 0 0 1
Lattice spacing in x,y,z = 5.43 5.43 5.43
region          0 block 0 $L 0 $W 0 $H units lattice side in
region          0 block 0 50 0 $W 0 $H units lattice side in
region          0 block 0 50 0 22 0 $H units lattice side in
region          0 block 0 50 0 22 0 22 units lattice side in
create_box      1 0
Created orthogonal box = (0 0 0) to (271.5 119.46 119.46)
  8 by 2 by 2 MPI processor grid
create_atoms    1 region 0
Created 193600 atoms
mass		1 28.0855
#dump		1 all xyz 1000 Si_W_${W}nm.xyz
#dump_modify	1 element Si

############################################
pair_style   sw
pair_coeff   * * Si${P}.sw Si
pair_coeff   * * Si31.sw Si
thermo		100
thermo_style custom step lx
min_style cg
minimize 0.0 1.0e-8 10000 100000
WARNING: Using 'neigh_modify every 1 delay 0 check yes' setting during minimization (../min.cpp:168)
Neighbor list info ...
  update every 1 steps, delay 0 steps, check yes
  max neighbors/atom: 2000, page size: 100000
  master list distance cutoff = 5.41154
  ghost atom cutoff = 5.41154
  binsize = 2.70577, bins = 101 45 45
  1 neighbor lists, perpetual/occasional/extra = 1 0 0
  (1) pair sw, perpetual
      attributes: full, newton on
      pair build: full/bin/atomonly
      stencil: full/bin/3d
      bin: standard
Per MPI rank memory allocation (min/avg/max) = 4.816 | 4.816 | 4.816 Mbytes
Step Lx 
       0        271.5 
       1        271.5 
Loop time of 0.0388025 on 32 procs for 1 steps with 193600 atoms

77.5% CPU use with 32 MPI tasks x no OpenMP threads

Minimization stats:
  Stopping criterion = force tolerance
  Energy initial, next-to-last, final = 
        -516375.945338     -516375.945338     -516375.945338
  Force two-norm initial, final = 7.01429e-11 7.00968e-11
  Force max component initial, final = 4.05977e-13 4.07119e-13
  Final line search alpha, max atom move = 1 4.07119e-13
  Iterations, force evaluations = 1 2

MPI task timing breakdown:
Section |  min time  |  avg time  |  max time  |%varavg| %total
---------------------------------------------------------------
Pair    | 0.023752   | 0.024127   | 0.024511   |   0.2 | 62.18
Neigh   | 0          | 0          | 0          |   0.0 |  0.00
Comm    | 0.005859   | 0.0083952  | 0.01084    |   1.6 | 21.64
Output  | 0          | 0          | 0          |   0.0 |  0.00
Modify  | 0          | 0          | 0          |   0.0 |  0.00
Other   |            | 0.00628    |            |       | 16.18

Nlocal:    6050 ave 6050 max 6050 min
Histogram: 32 0 0 0 0 0 0 0 0 0
Nghost:    4358 ave 4358 max 4358 min
Histogram: 32 0 0 0 0 0 0 0 0 0
Neighs:    0 ave 0 max 0 min
Histogram: 32 0 0 0 0 0 0 0 0 0
FullNghs:  169400 ave 169400 max 169400 min
Histogram: 32 0 0 0 0 0 0 0 0 0

Total # of neighbors = 5420800
Ave neighs/atom = 28
Neighbor list builds = 0
Dangerous builds = 0
timestep     ${dt}
timestep     0.0005
velocity 	all create $T 492845
velocity 	all create 300 492845


fix 		NPT all npt temp $T $T ${tdamp} iso 0.0 0.0 ${pdamp}
fix 		NPT all npt temp 300 $T ${tdamp} iso 0.0 0.0 ${pdamp}
fix 		NPT all npt temp 300 300 ${tdamp} iso 0.0 0.0 ${pdamp}
fix 		NPT all npt temp 300 300 0.05 iso 0.0 0.0 ${pdamp}
fix 		NPT all npt temp 300 300 0.05 iso 0.0 0.0 0.5
thermo		100
thermo_style custom step lx press
run		${tnpt}
run		5000
Per MPI rank memory allocation (min/avg/max) = 3.691 | 3.691 | 3.691 Mbytes
Step Lx Press 
       1        271.5   -137866.91 
     100    265.99633   -88802.345 
     200    262.49458   -50129.158 
     300    260.28607   -22943.977 
     400    259.09426   -6408.6233 
     500    258.67415    -1042.388 
     600    258.61985   -58.452729 
     700    258.63002    364.13789 
     800    258.65175   -171.76032 
     900    258.65147    83.470948 
    1000    258.67452    97.256498 
    1100    258.68074    -39.39084 
    1200    258.68624     36.78111 
    1300    258.70484      37.1156 
    1400    258.70062    13.530577 
    1500    258.70783   -16.642203 
    1600    258.70573     1.046284 
    1700     258.7006   -38.224799 
    1800    258.69804    33.748575 
    1900    258.70153   -20.146513 
    2000    258.70122   -23.461144 
    2100     258.7038  -0.98936526 
    2200    258.70532    10.638766 
    2300    258.70191   -62.601177 
    2400    258.70009    11.090193 
    2500    258.69862    39.485395 
    2600    258.70052   -25.539485 
    2700     258.7011    38.225658 
    2800    258.70522    13.434085 
    2900    258.70241   -18.940269 
    3000    258.70183   -25.350161 
    3100     258.6958    19.594872 
    3200     258.6982    12.562919 
    3300    258.70706   -16.147114 
    3400    258.70001    21.137009 
    3500    258.70031   -6.6777803 
    3600    258.70393  -0.20323341 
    3700    258.69467    7.6280094 
    3800    258.70116   -3.0129775 
    3900    258.70505   -26.423101 
    4000    258.69336    63.385919 
    4100    258.71309   -99.623353 
    4200    258.68918    81.574945 
    4300    258.70614   -38.992764 
    4400    258.69891   -40.703438 
    4500    258.69475    94.391629 
    4600    258.70756    -71.36753 
    4700    258.69471    71.792647 
    4800    258.70455    -27.04052 
    4900    258.69914    16.997693 
    5000    258.69753   0.65186318 
    5001    258.69748    2.0112788 
Loop time of 72.3713 on 32 procs for 5000 steps with 193600 atoms

Performance: 2.985 ns/day, 8.041 hours/ns, 69.088 timesteps/s
75.3% CPU use with 32 MPI tasks x no OpenMP threads

MPI task timing breakdown:
Section |  min time  |  avg time  |  max time  |%varavg| %total
---------------------------------------------------------------
Pair    | 41.761     | 42.302     | 42.843     |   4.7 | 58.45
Neigh   | 0.17007    | 0.1754     | 0.18269    |   0.8 |  0.24
Comm    | 11.153     | 16.82      | 21.508     |  78.6 | 23.24
Output  | 0.028074   | 0.031818   | 0.034924   |   1.3 |  0.04
Modify  | 7.2119     | 12.187     | 17.504     |  93.3 | 16.84
Other   |            | 0.8546     |            |       |  1.18

Nlocal:    6050 ave 6122 max 6007 min
Histogram: 4 4 5 4 9 0 2 2 1 1
Nghost:    5892.41 ave 5936 max 5821 min
Histogram: 1 1 2 2 0 8 5 5 6 2
Neighs:    0 ave 0 max 0 min
Histogram: 32 0 0 0 0 0 0 0 0 0
FullNghs:  205723 ave 208186 max 204285 min
Histogram: 5 4 4 6 7 0 2 2 1 1

Total # of neighbors = 6583138
Ave neighs/atom = 34.0038
Neighbor list builds = 16
Dangerous builds = 0
unfix		NPT
variable	length equal lx/${LC}
variable	length equal lx/5.43

################### Geometrical Parameters After Relaxation ###############################
# Thermostat_width
variable	TW equal ${length}/40
variable	TW equal 47.6422608662783/40
# Hot_Start
variable	hs equal ${length}/4-${TW}
variable	hs equal 47.6422608662783/4-${TW}
variable	hs equal 47.6422608662783/4-1.19105652165696
# Hot_End
variable	he equal ${length}/4+${TW}
variable	he equal 47.6422608662783/4+${TW}
variable	he equal 47.6422608662783/4+1.19105652165696
# Cold_Start
variable	cs equal 3*${length}/4-${TW}
variable	cs equal 3*47.6422608662783/4-${TW}
variable	cs equal 3*47.6422608662783/4-1.19105652165696
# Cold_End
variable	ce equal 3*${length}/4+${TW}
variable	ce equal 3*47.6422608662783/4+${TW}
variable	ce equal 3*47.6422608662783/4+1.19105652165696
###########################################################################################

################### Defining Thermostat ###################################################
region 		hot block ${hs} ${he} EDGE EDGE EDGE EDGE
region 		hot block 10.7195086949126 ${he} EDGE EDGE EDGE EDGE
region 		hot block 10.7195086949126 13.1016217382265 EDGE EDGE EDGE EDGE
region 		cold block ${cs} ${ce} EDGE EDGE EDGE EDGE
region 		cold block 34.5406391280518 ${ce} EDGE EDGE EDGE EDGE
region 		cold block 34.5406391280518 36.9227521713657 EDGE EDGE EDGE EDGE
group		test region cold
9589 atoms in group test
group		test1 region hot
9577 atoms in group test1
compute		Thot all temp/region hot
compute         Tcold all temp/region cold
###########################################################################################

fix		NVT all nvt temp $T $T ${tdamp}
fix		NVT all nvt temp 300 $T ${tdamp}
fix		NVT all nvt temp 300 300 ${tdamp}
fix		NVT all nvt temp 300 300 0.05
thermo		1000
thermo_style	custom step temp
run		${tnvt}
run		40000
Per MPI rank memory allocation (min/avg/max) = 4.091 | 4.092 | 4.094 Mbytes
Step Temp 
    5001    300.84316 
    6000    297.74188 
    7000    299.44922 
    8000    301.30053 
    9000    299.17589 
   10000    300.22032 
   11000    297.79679 
   12000     298.9526 
   13000    298.83506 
   14000    300.99367 
   15000    299.58567 
   16000    300.38546 
   17000    299.88239 
   18000    300.76969 
   19000    300.79811 
   20000    299.72047 
   21000    300.35084 
   22000    300.41241 
   23000    299.30397 
   24000    298.43612 
   25000    299.87738 
   26000    300.00251 
   27000    299.14026 
   28000    299.26633 
   29000    300.16431 
   30000    300.07068 
   31000    299.36784 
   32000    300.23815 
   33000    300.34506 
   34000    299.86793 
   35000    300.04182 
   36000     301.1956 
   37000    299.78699 
   38000    300.18217 
   39000    298.98052 
   40000     300.1618 
   41000    300.51417 
   42000    301.05294 
   43000    299.91788 
   44000    300.10707 
   45000    299.33491 
   45001    299.32155 
Loop time of 552.629 on 32 procs for 40000 steps with 193600 atoms

Performance: 3.127 ns/day, 7.675 hours/ns, 72.381 timesteps/s
75.7% CPU use with 32 MPI tasks x no OpenMP threads

MPI task timing breakdown:
Section |  min time  |  avg time  |  max time  |%varavg| %total
---------------------------------------------------------------
Pair    | 325.98     | 331.8      | 337.45     |  14.2 | 60.04
Neigh   | 0          | 0          | 0          |   0.0 |  0.00
Comm    | 98.705     | 141.22     | 177.45     | 216.7 | 25.55
Output  | 0.022893   | 0.024747   | 0.028509   |   0.6 |  0.00
Modify  | 30.296     | 65.974     | 104.84     | 303.5 | 11.94
Other   |            | 13.61      |            |       |  2.46

Nlocal:    6050 ave 6089 max 5993 min
Histogram: 1 1 1 6 2 5 3 4 5 4
Nghost:    5891.09 ave 5949 max 5850 min
Histogram: 4 4 5 3 3 4 6 1 1 1
Neighs:    0 ave 0 max 0 min
Histogram: 32 0 0 0 0 0 0 0 0 0
FullNghs:  205779 ave 207110 max 203803 min
Histogram: 1 1 1 5 4 4 2 5 5 4

Total # of neighbors = 6584940
Ave neighs/atom = 34.0131
Neighbor list builds = 0
Dangerous builds = 0
velocity	all scale $T
velocity	all scale 300
unfix		NVT

fix		NVE all nve
fix		hot all langevin ${thi} ${thi} ${tdamp} 389516 tally yes
fix		hot all langevin 319.9225 ${thi} ${tdamp} 389516 tally yes
fix		hot all langevin 319.9225 319.9225 ${tdamp} 389516 tally yes
fix		hot all langevin 319.9225 319.9225 0.05 389516 tally yes
fix_modify	hot temp Thot
fix		cold all langevin ${tlo} ${tlo} ${tdamp} 46579 tally yes
fix		cold all langevin 280.0775 ${tlo} ${tdamp} 46579 tally yes
fix		cold all langevin 280.0775 280.0775 ${tdamp} 46579 tally yes
fix		cold all langevin 280.0775 280.0775 0.05 46579 tally yes
fix_modify	cold temp Tcold

thermo_style	custom step temp c_Thot c_Tcold f_hot f_cold
run		${t1nve}
run		100000
Per MPI rank memory allocation (min/avg/max) = 4.841 | 4.842 | 4.844 Mbytes
Step Temp c_Thot c_Tcold f_hot f_cold 
   45001          300    297.36082    300.93204           -0           -0 
   46000    300.21905     318.6359    281.23781   -65.543565    83.957377 
   47000    299.66605    323.37498    283.08755   -98.105286    102.51066 
   48000    300.06931    318.00046    281.19039   -111.37819    127.56992 
   49000    300.79711    322.85407    281.25045   -140.15979    139.85034 
   50000    300.22955    319.59672    279.96854   -151.39158    155.78023 
   51000    301.41019    321.02676    282.63912   -174.79213    174.97181 
   52000    300.54629    315.53058    281.96066   -184.44659     188.2246 
   53000    300.56396    317.91479    282.15502    -217.1351    213.08651 
   54000    299.79967    319.83163    277.97477   -239.43573     241.3432 
   55000    300.99497    317.50044    279.62655   -258.52745    257.09676 
   56000    300.45665    316.90645    280.49602   -284.84608     281.9125 
   57000    300.24788    318.06089    280.21518   -323.39448    315.53456 
   58000    299.99235     318.5932    282.62609   -343.29369    348.03077 
   59000    300.31385    316.81011    282.10951    -368.1574    377.98812 
   60000     300.2843    317.46599    283.73694   -388.75819    401.74675 
   61000    300.38728    320.38731    283.50931   -422.55059    431.46492 
   62000    300.17611    318.37957    279.51551   -460.62122    468.45267 
   63000    300.07558    322.52898    280.34877   -492.68213    495.48818 
   64000     300.1157    318.66589    282.10472   -520.91941    521.02014 
   65000    300.45273     321.0199    280.20949   -548.85634    561.90619 
   66000    300.36831    318.73173    282.02109   -562.13049    589.18001 
   67000    299.67599    318.48983    280.45894   -593.48938    618.10377 
   68000    299.37591    322.31643    280.49341    -616.9484    642.25347 
   69000    299.60422    316.52289    277.28458   -633.72264    670.46849 
   70000    299.84098    315.56417      282.103   -670.99611    696.97798 
   71000    299.97487    320.78523    279.88545   -710.94577    723.57983 
   72000    300.41773    317.44889    281.59356   -746.34801    747.68746 
   73000    300.54693    320.06194    281.76268   -759.45787    770.23381 
   74000    300.32587    319.50957    280.21335   -798.16978    801.69861 
   75000    300.56235    317.21442    282.30755   -833.13123     824.6428 
   76000    300.28214    320.99966    281.22833    -864.5625    860.43347 
   77000    299.85348    310.75957    280.63074   -878.48953    888.00605 
   78000    300.33988    319.38569    279.25491   -928.30365    917.31593 
   79000    300.05374    315.89832    275.99851   -950.46842    953.39101 
   80000    299.70944    316.83902    282.96935   -966.87856    973.55717 
   81000    300.57246    318.39955    283.77666   -1000.0123    1007.6198 
   82000    300.75177    320.37963    279.69577   -1023.5846    1054.4649 
   83000    300.40443    316.06282    278.83817   -1050.3761    1085.8059 
   84000    299.47942    313.06731    281.16445   -1077.8828    1113.5335 
   85000    299.43131    323.08054    278.90351   -1114.6266    1153.0184 
   86000    300.14288    321.33604    283.90348   -1138.2485    1176.0711 
   87000    299.57795    322.86233    278.93829   -1165.9069    1209.7514 
   88000    299.34058    318.48382    282.36985   -1191.8316    1242.2224 
   89000    299.76732    319.88393     282.1296   -1215.2324     1277.533 
   90000     299.4498    319.54064    280.47152   -1249.4829    1308.0049 
   91000    300.07218    323.96083    281.81906   -1282.4332    1332.7397 
   92000    299.80483    316.66711     280.3083   -1308.9479    1367.1162 
   93000    299.98467    320.64952    285.37089   -1343.8544    1395.3217 
   94000    299.17094    316.94761    277.10676   -1368.6558    1443.1806 
   95000    299.75376    323.83238    285.03954   -1407.9885    1456.1071 
   96000    299.94133    318.44415    282.49884   -1437.8899    1486.2033 
   97000    299.98451    315.90969    283.67008   -1451.3636    1508.7154 
   98000    300.10752    318.62743    280.16032    -1483.632    1538.6418 
   99000    299.97081     318.9277    282.54183   -1515.6566    1565.1968 
  100000    299.95204    321.92565    278.05325   -1556.1333    1600.6491 
  101000     299.8905    313.75903    279.80669    -1571.759    1628.0722 
  102000    299.94214    318.18838     285.9564   -1605.6181    1646.5803 
  103000    299.22108    319.13034    279.30596   -1637.7873    1685.2276 
  104000    299.47355    319.57954    276.54189   -1648.0864    1712.1976 
  105000    299.71329    318.39828    282.03642   -1684.3804     1741.392 
  106000    299.09149    314.10119    279.74166   -1710.1371    1765.7394 
  107000    298.81406    319.73072    282.43891   -1741.0301    1804.0365 
  108000    299.26521    316.42297    280.30103   -1771.5985     1833.163 
  109000    299.32219      320.532    280.77916   -1810.5357    1861.3771 
  110000    299.20179    316.05428    282.47224   -1826.1884    1878.7856 
  111000    299.17518    315.62695     281.2699   -1853.0028    1914.3828 
  112000    299.86472    321.03667     281.2333    -1888.385    1931.0903 
  113000    299.53304    324.09394    281.30094   -1925.8945    1964.2285 
  114000    299.74093    320.55609    281.99697   -1956.6624    1982.5658 
  115000    300.29144     321.1774    280.17514   -1987.5362    2014.3844 
  116000    299.99914    323.39608     280.7193   -2011.2256    2050.7063 
  117000    299.94669    317.22914    283.06019   -2043.2648    2081.0738 
  118000    299.63834    317.62002    283.58103   -2062.9993    2106.8399 
  119000    299.95417    322.97875    281.29912   -2095.7707    2140.4408 
  120000    299.61732    318.59744     278.6146   -2125.5496    2165.0407 
  121000    299.70086    314.03869    283.79566   -2137.3664    2184.4806 
  122000    299.16076    317.26019    283.74656    -2175.047    2216.6735 
  123000    300.51741    319.02788    278.20231   -2210.1383    2245.7969 
  124000    299.45341    320.17345    284.84683   -2246.0302      2270.75 
  125000    300.11591    322.51526    280.11007   -2272.4673    2298.7202 
  126000    299.97197    322.12653    282.55297   -2303.7523    2329.6983 
  127000    300.54268    317.59255    280.88966   -2331.2698    2357.5757 
  128000    300.48774    321.99788    277.48758   -2367.9592    2396.9925 
  129000    299.65531    313.20669    282.52987   -2397.3515    2424.1588 
  130000    299.73821    319.70209    286.63769   -2428.4269    2440.6353 
  131000    300.24179    318.64494    275.25278    -2456.145    2497.8319 
  132000     299.8998      319.647    282.46978   -2493.6842    2513.6044 
  133000    300.45638    314.14065    281.60278   -2516.5243    2541.9564 
  134000    300.12105    311.95531     281.0901   -2537.9267    2568.7664 
  135000    300.76557    323.38135    282.28893    -2573.065    2598.7269 
  136000    300.07688      318.008    281.68126   -2601.1992    2631.6032 
  137000    300.19916    317.62172    284.56275   -2621.0331    2654.9536 
  138000    299.61495    319.92649    278.22221   -2666.2719    2692.6106 
  139000    300.20909    318.13813    282.07332   -2686.0247    2728.5402 
  140000    300.76888    318.18834    280.05394   -2715.8721    2755.0304 
  141000    299.24651    320.30444     282.6602   -2736.6686    2786.0796 
  142000     299.3839    316.63609    285.80637   -2762.4959    2810.3943 
  143000    298.84719    316.74658    280.03846   -2787.5936    2849.0625 
  144000    299.43358    312.75881    281.72223   -2816.4766    2877.6582 
  145000    299.00754    314.20232     276.6857   -2850.2822    2910.6472 
  145001    298.98551    313.87829    276.57871   -2850.1766    2910.6785 
Loop time of 1521.39 on 32 procs for 100000 steps with 193600 atoms

Performance: 2.840 ns/day, 8.452 hours/ns, 65.730 timesteps/s
75.9% CPU use with 32 MPI tasks x no OpenMP threads

MPI task timing breakdown:
Section |  min time  |  avg time  |  max time  |%varavg| %total
---------------------------------------------------------------
Pair    | 820.96     | 831.96     | 847.43     |  21.7 | 54.68
Neigh   | 0          | 0          | 0          |   0.0 |  0.00
Comm    | 254.66     | 365.04     | 453.78     | 328.6 | 23.99
Output  | 0.10023    | 0.10588    | 0.10931    |   0.7 |  0.01
Modify  | 207.83     | 293.61     | 395.32     | 371.8 | 19.30
Other   |            | 30.67      |            |       |  2.02

Nlocal:    6050 ave 6087 max 5999 min
Histogram: 1 1 2 4 5 4 4 3 5 3
Nghost:    5890.91 ave 5943 max 5852 min
Histogram: 3 4 5 2 5 5 5 1 1 1
Neighs:    0 ave 0 max 0 min
Histogram: 32 0 0 0 0 0 0 0 0 0
FullNghs:  205798 ave 207115 max 204069 min
Histogram: 1 1 3 3 5 4 4 3 6 2

Total # of neighbors = 6585540
Ave neighs/atom = 34.0162
Neighbor list builds = 0
Dangerous builds = 0

# thermal conductivity calculation
# reset langevin thermostats to zero energy accumulation
reset_timestep 0
thermo		$c
thermo		500000
compute		ke all ke/atom
variable	temp atom c_ke/1.5/8.617332478e-5
fix		hot all langevin ${thi} ${thi} ${tdamp} 389516 tally yes
fix		hot all langevin 319.9225 ${thi} ${tdamp} 389516 tally yes
fix		hot all langevin 319.9225 319.9225 ${tdamp} 389516 tally yes
fix		hot all langevin 319.9225 319.9225 0.05 389516 tally yes
fix_modify	hot temp Thot
fix		cold all langevin ${tlo} ${tlo} ${tdamp} 46579 tally yes
fix		cold all langevin 280.0775 ${tlo} ${tdamp} 46579 tally yes
fix		cold all langevin 280.0775 280.0775 ${tdamp} 46579 tally yes
fix		cold all langevin 280.0775 280.0775 0.05 46579 tally yes
fix_modify	cold temp Tcold

compute		ch all chunk/atom bin/1d x lower 0.02 units reduced
fix		11 all ave/chunk $a $b $c ch v_temp file sw_${P}.langevin
fix		11 all ave/chunk 100 $b $c ch v_temp file sw_${P}.langevin
fix		11 all ave/chunk 100 5000 $c ch v_temp file sw_${P}.langevin
fix		11 all ave/chunk 100 5000 500000 ch v_temp file sw_${P}.langevin
fix		11 all ave/chunk 100 5000 500000 ch v_temp file sw_31.langevin
thermo_style	custom step temp c_Thot c_Tcold f_hot f_cold

run		${t2nve}
run		500000
Per MPI rank memory allocation (min/avg/max) = 5.092 | 5.093 | 5.095 Mbytes
Step Temp c_Thot c_Tcold f_hot f_cold 
       0    298.98551    313.94128    276.59187           -0           -0 
  500000    300.16523    316.18638    283.99424   -14273.225     14230.65 
Loop time of 7681.71 on 32 procs for 500000 steps with 193600 atoms

Performance: 2.812 ns/day, 8.535 hours/ns, 65.090 timesteps/s
75.3% CPU use with 32 MPI tasks x no OpenMP threads

MPI task timing breakdown:
Section |  min time  |  avg time  |  max time  |%varavg| %total
---------------------------------------------------------------
Pair    | 4099.7     | 4162.2     | 4239.7     |  43.2 | 54.18
Neigh   | 0          | 0          | 0          |   0.0 |  0.00
Comm    | 1277.4     | 1875.7     | 2349.9     | 777.9 | 24.42
Output  | 0.00092    | 0.0016958  | 0.001815   |   0.4 |  0.00
Modify  | 1025.9     | 1479       | 2019.6     | 874.0 | 19.25
Other   |            | 164.9      |            |       |  2.15

Nlocal:    6050 ave 6092 max 6020 min
Histogram: 2 4 6 4 6 3 1 4 1 1
Nghost:    5886.78 ave 5918 max 5848 min
Histogram: 1 2 3 4 0 7 3 7 4 1
Neighs:    0 ave 0 max 0 min
Histogram: 32 0 0 0 0 0 0 0 0 0
FullNghs:  205806 ave 207264 max 204743 min
Histogram: 2 4 5 4 8 2 1 4 1 1

Total # of neighbors = 6585788
Ave neighs/atom = 34.0175
Neighbor list builds = 0
Dangerous builds = 0
clear
next		P
jump		Si.in
 units       metal
#----------------------------- User Input Variables --------------------------------------
################### Geometrical Parameters ###############################
variable	P index 29 30 31 32
variable	W equal 22
# Lattice Constant
variable	LC equal 5.43
# Length
variable	L equal 50
# Width
#variable	W equal 6
# Height
variable	H equal ${W}
variable	H equal 22
################### Simulation Condition ###############################
#DT/DX=cte
variable	cte equal 1.5938
log         sw_${P}.log
log         sw_32.log
