# temperature
variable	T equal 300
#cold region temperature
#variable        tlo equal 275
variable        tlo equal ${T}-${L}*${cte}/4.0
variable        tlo equal 300-${L}*${cte}/4.0
variable        tlo equal 300-50*${cte}/4.0
variable        tlo equal 300-50*1.5938/4.0
#hot region temperature
#variable        thi equal ${cte}*${L}/2+${tlo}
variable        thi equal ${T}+${L}*${cte}/4.0
variable        thi equal 300+${L}*${cte}/4.0
variable        thi equal 300+50*${cte}/4.0
variable        thi equal 300+50*1.5938/4.0

#time step (picoseconds)
variable	dt equal 0.0005 # 0.5 femtoseconds
#number of time steps for NPT
variable	tnpt equal 5000
#number of time steps for NVT
variable	tnvt equal 40000
#number of time steps for first NVE
variable	t1nve equal 100000
#number of time steps for second NVE
variable	t2nve equal 500000

################### Variable Based on LAMMPS Documentation ######################
variable	a equal 100
variable	c equal ${t2nve}
variable	c equal 500000
variable	b equal $c/$a
variable	b equal 500000/$a
variable	b equal 500000/100
variable	tdamp equal ${dt}*100
variable	tdamp equal 0.0005*100
variable	pdamp equal ${dt}*1000
variable	pdamp equal 0.0005*1000

#----------------------------------------------------------------------------------------
# setup problem
dimension       3
boundary        p p p
atom_style      atomic
lattice 	diamond ${LC} origin 0.0 0.0 0.0 orient x 1 0 0 orient y 0 1 0 orient z 0 0 1
lattice 	diamond 5.43 origin 0.0 0.0 0.0 orient x 1 0 0 orient y 0 1 0 orient z 0 0 1
Lattice spacing in x,y,z = 5.43 5.43 5.43
region          0 block 0 $L 0 $W 0 $H units lattice side in
region          0 block 0 50 0 $W 0 $H units lattice side in
region          0 block 0 50 0 22 0 $H units lattice side in
region          0 block 0 50 0 22 0 22 units lattice side in
create_box      1 0
Created orthogonal box = (0 0 0) to (271.5 119.46 119.46)
  8 by 2 by 2 MPI processor grid
create_atoms    1 region 0
Created 193600 atoms
mass		1 28.0855
#dump		1 all xyz 1000 Si_W_${W}nm.xyz
#dump_modify	1 element Si

############################################
pair_style   sw
pair_coeff   * * Si${P}.sw Si
pair_coeff   * * Si40.sw Si
thermo		100
thermo_style custom step lx
min_style cg
minimize 0.0 1.0e-8 10000 100000
WARNING: Using 'neigh_modify every 1 delay 0 check yes' setting during minimization (../min.cpp:168)
Neighbor list info ...
  update every 1 steps, delay 0 steps, check yes
  max neighbors/atom: 2000, page size: 100000
  master list distance cutoff = 5.91913
  ghost atom cutoff = 5.91913
  binsize = 2.95957, bins = 92 41 41
  1 neighbor lists, perpetual/occasional/extra = 1 0 0
  (1) pair sw, perpetual
      attributes: full, newton on
      pair build: full/bin/atomonly
      stencil: full/bin/3d
      bin: standard
Per MPI rank memory allocation (min/avg/max) = 5.235 | 5.236 | 5.238 Mbytes
Step Lx 
       0        271.5 
       1        271.5 
Loop time of 0.304933 on 32 procs for 1 steps with 193600 atoms

96.1% CPU use with 32 MPI tasks x no OpenMP threads

Minimization stats:
  Stopping criterion = force tolerance
  Energy initial, next-to-last, final = 
        -971412.224706     -971412.224706     -971412.224706
  Force two-norm initial, final = 1.0342e-10 1.03346e-10
  Force max component initial, final = 6.05051e-13 6.07844e-13
  Final line search alpha, max atom move = 1 6.07844e-13
  Iterations, force evaluations = 1 2

MPI task timing breakdown:
Section |  min time  |  avg time  |  max time  |%varavg| %total
---------------------------------------------------------------
Pair    | 0.28473    | 0.28668    | 0.29092    |   0.3 | 94.01
Neigh   | 0          | 0          | 0          |   0.0 |  0.00
Comm    | 0.006704   | 0.010899   | 0.014719   |   2.0 |  3.57
Output  | 0          | 0          | 0          |   0.0 |  0.00
Modify  | 0          | 0          | 0          |   0.0 |  0.00
Other   |            | 0.007352   |            |       |  2.41

Nlocal:    6050 ave 6050 max 6050 min
Histogram: 32 0 0 0 0 0 0 0 0 0
Nghost:    5892.5 ave 5893 max 5892 min
Histogram: 16 0 0 0 0 0 0 0 0 16
Neighs:    0 ave 0 max 0 min
Histogram: 32 0 0 0 0 0 0 0 0 0
FullNghs:  278300 ave 278300 max 278300 min
Histogram: 32 0 0 0 0 0 0 0 0 0

Total # of neighbors = 8905600
Ave neighs/atom = 46
Neighbor list builds = 0
Dangerous builds = 0
timestep     ${dt}
timestep     0.0005
velocity 	all create $T 492845
velocity 	all create 300 492845


fix 		NPT all npt temp $T $T ${tdamp} iso 0.0 0.0 ${pdamp}
fix 		NPT all npt temp 300 $T ${tdamp} iso 0.0 0.0 ${pdamp}
fix 		NPT all npt temp 300 300 ${tdamp} iso 0.0 0.0 ${pdamp}
fix 		NPT all npt temp 300 300 0.05 iso 0.0 0.0 ${pdamp}
fix 		NPT all npt temp 300 300 0.05 iso 0.0 0.0 0.5
thermo		100
thermo_style custom step lx press
run		${tnpt}
run		5000
Per MPI rank memory allocation (min/avg/max) = 4.11 | 4.111 | 4.113 Mbytes
Step Lx Press 
       1        271.5    54321.174 
     100    274.72865     16855.63 
     200    276.06862    2886.7437 
     300    276.35931   -159.94413 
     400     276.3621    111.15358 
     500    276.37527    10.709412 
     600    276.39379   -5.1677782 
     700    276.40256    75.253688 
     800    276.41923    33.166561 
     900    276.43463    20.936633 
    1000    276.45126   -20.048709 
    1100    276.46437    32.127314 
    1200    276.47707    4.5760483 
    1300    276.49015    10.422563 
    1400    276.49968    5.6304446 
    1500     276.5065    13.182734 
    1600    276.50822    9.3209146 
    1700     276.5096   -30.028257 
    1800    276.50145    8.7277041 
    1900    276.49996    0.2355954 
    2000    276.49918    17.830937 
    2100    276.50419   -1.4436091 
    2200    276.50673  -0.39355456 
    2300    276.50898   -4.9526185 
    2400    276.50034    2.6873175 
    2500    276.50331   -6.6119537 
    2600    276.50291   -10.415717 
    2700     276.4989    49.886208 
    2800    276.51111   -65.589143 
    2900    276.50014    74.896467 
    3000    276.50834   -75.596116 
    3100    276.50723     14.71439 
    3200    276.48732    108.57187 
    3300    276.52269   -202.69361 
    3400    276.48634    201.64109 
    3500    276.51497   -113.17647 
    3600    276.50694   -15.156691 
    3700    276.49777    58.104749 
    3800     276.5082   -42.924673 
    3900    276.49708    32.909327 
    4000    276.50835   -26.523336 
    4100     276.4997     35.51876 
    4200    276.51358    -76.40277 
    4300    276.49778    67.659984 
    4400    276.50622   -36.009566 
    4500    276.50184    9.3147864 
    4600    276.50285    9.5496304 
    4700    276.50356    6.7230826 
    4800     276.5057   -16.640774 
    4900    276.50749    5.5640383 
    5000    276.50046    22.148599 
    5001    276.50022    24.224834 
Loop time of 280.354 on 32 procs for 5000 steps with 193600 atoms

Performance: 0.770 ns/day, 31.150 hours/ns, 17.835 timesteps/s
89.5% CPU use with 32 MPI tasks x no OpenMP threads

MPI task timing breakdown:
Section |  min time  |  avg time  |  max time  |%varavg| %total
---------------------------------------------------------------
Pair    | 227.94     | 231.51     | 235.89     |  11.2 | 82.58
Neigh   | 0.082256   | 0.083969   | 0.0882     |   0.5 |  0.03
Comm    | 19.954     | 28.818     | 35.227     |  75.7 | 10.28
Output  | 0.027187   | 0.032124   | 0.035829   |   1.7 |  0.01
Modify  | 13.226     | 18.894     | 26.728     | 101.2 |  6.74
Other   |            | 1.017      |            |       |  0.36

Nlocal:    6050 ave 6093 max 5991 min
Histogram: 2 1 1 5 2 6 5 2 3 5
Nghost:    5892.5 ave 5951 max 5849 min
Histogram: 4 4 2 5 5 3 5 1 1 2
Neighs:    0 ave 0 max 0 min
Histogram: 32 0 0 0 0 0 0 0 0 0
FullNghs:  208545 ave 210118 max 206477 min
Histogram: 2 1 3 3 2 5 6 2 4 4

Total # of neighbors = 6673454
Ave neighs/atom = 34.4703
Neighbor list builds = 6
Dangerous builds = 0
unfix		NPT
variable	length equal lx/${LC}
variable	length equal lx/5.43

################### Geometrical Parameters After Relaxation ###############################
# Thermostat_width
variable	TW equal ${length}/40
variable	TW equal 50.9208504269102/40
# Hot_Start
variable	hs equal ${length}/4-${TW}
variable	hs equal 50.9208504269102/4-${TW}
variable	hs equal 50.9208504269102/4-1.27302126067275
# Hot_End
variable	he equal ${length}/4+${TW}
variable	he equal 50.9208504269102/4+${TW}
variable	he equal 50.9208504269102/4+1.27302126067275
# Cold_Start
variable	cs equal 3*${length}/4-${TW}
variable	cs equal 3*50.9208504269102/4-${TW}
variable	cs equal 3*50.9208504269102/4-1.27302126067275
# Cold_End
variable	ce equal 3*${length}/4+${TW}
variable	ce equal 3*50.9208504269102/4+${TW}
variable	ce equal 3*50.9208504269102/4+1.27302126067275
###########################################################################################

################### Defining Thermostat ###################################################
region 		hot block ${hs} ${he} EDGE EDGE EDGE EDGE
region 		hot block 11.4571913460548 ${he} EDGE EDGE EDGE EDGE
region 		hot block 11.4571913460548 14.0032338674003 EDGE EDGE EDGE EDGE
region 		cold block ${cs} ${ce} EDGE EDGE EDGE EDGE
region 		cold block 36.9176165595099 ${ce} EDGE EDGE EDGE EDGE
region 		cold block 36.9176165595099 39.4636590808554 EDGE EDGE EDGE EDGE
group		test region cold
9573 atoms in group test
group		test1 region hot
9567 atoms in group test1
compute		Thot all temp/region hot
compute         Tcold all temp/region cold
###########################################################################################

fix		NVT all nvt temp $T $T ${tdamp}
fix		NVT all nvt temp 300 $T ${tdamp}
fix		NVT all nvt temp 300 300 ${tdamp}
fix		NVT all nvt temp 300 300 0.05
thermo		1000
thermo_style	custom step temp
run		${tnvt}
run		40000
Per MPI rank memory allocation (min/avg/max) = 4.118 | 4.119 | 4.121 Mbytes
Step Temp 
    5001    297.97148 
    6000    301.67399 
    7000    303.00439 
    8000    298.53561 
    9000     300.0334 
   10000    297.82209 
   11000    300.42755 
   12000    299.75512 
   13000    300.50847 
   14000    300.81265 
   15000    299.15449 
   16000     301.9088 
   17000     299.3131 
   18000    300.25261 
   19000     298.0404 
   20000     301.1091 
   21000    301.56472 
   22000    300.36666 
   23000    300.22387 
   24000    298.46573 
   25000    300.86197 
   26000    300.68698 
   27000     299.5293 
   28000    299.23379 
   29000    299.24953 
   30000    299.81638 
   31000    300.42351 
   32000    300.30732 
   33000     299.4292 
   34000    300.14387 
   35000    298.62197 
   36000    300.48632 
   37000    299.20573 
   38000    301.39106 
   39000    300.02498 
   40000    300.42452 
   41000    301.09483 
   42000     299.4343 
   43000    300.06738 
   44000    300.45045 
   45000    299.37114 
   45001    299.36074 
Loop time of 2137.69 on 32 procs for 40000 steps with 193600 atoms

Performance: 0.808 ns/day, 29.690 hours/ns, 18.712 timesteps/s
89.9% CPU use with 32 MPI tasks x no OpenMP threads

MPI task timing breakdown:
Section |  min time  |  avg time  |  max time  |%varavg| %total
---------------------------------------------------------------
Pair    | 1780.9     | 1794.9     | 1818.2     |  20.9 | 83.97
Neigh   | 0          | 0          | 0          |   0.0 |  0.00
Comm    | 164.47     | 221.37     | 263.24     | 210.6 | 10.36
Output  | 0.023786   | 0.026605   | 0.029045   |   1.1 |  0.00
Modify  | 68.296     | 106.91     | 159.99     | 301.1 |  5.00
Other   |            | 14.46      |            |       |  0.68

Nlocal:    6050 ave 6106 max 6006 min
Histogram: 4 0 6 2 9 2 4 3 1 1
Nghost:    5892.5 ave 5936 max 5837 min
Histogram: 1 1 3 4 2 9 2 6 0 4
Neighs:    0 ave 0 max 0 min
Histogram: 32 0 0 0 0 0 0 0 0 0
FullNghs:  211453 ave 213548 max 209666 min
Histogram: 4 2 2 4 7 3 3 5 0 2

Total # of neighbors = 6766490
Ave neighs/atom = 34.9509
Neighbor list builds = 0
Dangerous builds = 0
velocity	all scale $T
velocity	all scale 300
unfix		NVT

fix		NVE all nve
fix		hot all langevin ${thi} ${thi} ${tdamp} 389516 tally yes
fix		hot all langevin 319.9225 ${thi} ${tdamp} 389516 tally yes
fix		hot all langevin 319.9225 319.9225 ${tdamp} 389516 tally yes
fix		hot all langevin 319.9225 319.9225 0.05 389516 tally yes
fix_modify	hot temp Thot
fix		cold all langevin ${tlo} ${tlo} ${tdamp} 46579 tally yes
fix		cold all langevin 280.0775 ${tlo} ${tdamp} 46579 tally yes
fix		cold all langevin 280.0775 280.0775 ${tdamp} 46579 tally yes
fix		cold all langevin 280.0775 280.0775 0.05 46579 tally yes
fix_modify	cold temp Tcold

thermo_style	custom step temp c_Thot c_Tcold f_hot f_cold
run		${t1nve}
run		100000
Per MPI rank memory allocation (min/avg/max) = 4.868 | 4.869 | 4.871 Mbytes
Step Temp c_Thot c_Tcold f_hot f_cold 
   45001          300    303.62321    298.16516           -0           -0 
   46000    300.16787    319.39396    282.38704   -68.809831    76.455975 
   47000    299.50967    314.40284    282.80594   -95.673885    112.34822 
   48000    299.04509    319.25638    280.38211   -118.10845     137.9835 
   49000    299.66511     321.6772    284.93402    -150.7986    146.68051 
   50000    300.20828    316.11433    278.81105   -185.62804    186.09774 
   51000    299.29666    319.48463    280.42109   -214.40033    217.58996 
   52000    299.14647    318.46159    280.84286   -231.79227    238.39075 
   53000    299.40693    319.51411    283.20368   -265.68466    273.39456 
   54000    299.50507    316.89198    279.76968   -311.72624    310.99703 
   55000    299.40513     321.7072    283.90392   -342.61906    346.53142 
   56000    300.47562    320.13443    286.08345   -389.14802    379.52754 
   57000    299.57772     320.3202     282.0705   -428.53326    421.83614 
   58000    299.93142    317.81821    282.44832   -476.71921    468.85575 
   59000    300.90642    321.46832    284.53556   -510.79786    494.44172 
   60000    300.21215    319.13023    280.70362   -555.65597     541.9403 
   61000     299.7202    317.09696    280.67139   -591.63795    583.49024 
   62000    300.73753    320.60416    280.36416    -645.7231    627.57425 
   63000    299.82662    318.53916    281.97972    -686.2434    661.19584 
   64000    299.43541    313.52158     281.7112   -720.62874    699.82739 
   65000    300.83449    315.40806    283.45949   -758.38411    738.07108 
   66000    299.46645    318.23086     280.8516   -800.99619    787.48184 
   67000    299.41785     319.3886    284.44149   -840.43235     829.3652 
   68000     299.6199    314.47733     283.2102     -876.789    875.00276 
   69000     300.4455    317.27904    278.16412    -920.1272    922.24199 
   70000    299.65475    318.06131     287.1344   -955.91119    944.54288 
   71000    300.14708    320.82342    284.14958   -1009.5916    989.25566 
   72000      300.262    317.77046    283.94554    -1046.447     1035.355 
   73000    300.37229    316.33641    282.27874   -1083.5584    1075.2992 
   74000    299.84642    316.19847     280.2824   -1129.3913    1120.6834 
   75000    299.97153    318.68904    278.46373   -1184.5422    1161.7944 
   76000    300.23114    320.45513    277.85424   -1228.4242      1200.38 
   77000     300.0842    315.74751    282.20209   -1269.6092    1233.8854 
   78000    300.60014    320.86448    283.63618    -1318.668    1272.9873 
   79000    300.87939    317.69619    281.50928   -1357.2761    1318.4446 
   80000    300.34185    323.80001    283.13558   -1403.4588    1359.1013 
   81000    300.50671    321.52726    285.22862   -1432.6171    1388.8477 
   82000     301.2905    319.08291    282.85906   -1481.6966    1429.7184 
   83000    300.71925    315.24745     282.1725   -1509.8454    1464.7621 
   84000    300.64382    314.30437    283.92156   -1545.5318    1523.3545 
   85000    300.93418    319.26153    284.26131   -1587.3892    1562.2737 
   86000    300.55208    327.26981    281.78482   -1647.1779    1594.0816 
   87000    300.38106    318.67951    284.93854   -1666.4779    1639.4862 
   88000    300.55999    316.42607    283.90729   -1697.2325    1694.7314 
   89000     299.0984    320.57282    276.80863   -1749.7701    1745.0189 
   90000    300.51987    320.08142    282.25981   -1790.6796    1772.0786 
   91000    300.07396    320.48132    279.71728   -1827.3152    1810.4417 
   92000    300.73694    313.48308    285.77486   -1848.4188    1858.2684 
   93000    300.16043    318.33086    287.35413   -1917.4853    1899.6411 
   94000    300.30617    317.43291    279.50129   -1953.2675    1941.5297 
   95000    299.43056    315.31935    281.50604    -1991.986    1982.4539 
   96000    299.60637    319.80887    285.58827   -2051.0092    2022.8432 
   97000    300.33012    315.91371    283.93483   -2081.5055    2068.5907 
   98000    300.85383    316.47359    279.08662   -2123.3845    2111.3338 
   99000    300.71176    319.07496     284.6939   -2180.5717    2135.5467 
  100000    300.69326    318.81081    281.57993   -2223.7667    2179.5006 
  101000    300.74575     320.0479    284.65802   -2264.4317     2209.624 
  102000    300.61817    321.01232    281.16266   -2300.8881    2261.8355 
  103000    300.12697    318.40393    282.15237   -2337.7204    2295.9146 
  104000    299.80578    317.47606    279.51507   -2373.8325    2339.5891 
  105000     300.2775    319.03354    283.51513   -2419.1561    2380.1486 
  106000    300.63656     316.0655    282.41764   -2450.0507    2418.0253 
  107000    299.72754    318.86909    279.34107   -2496.3865     2479.647 
  108000    299.88728    316.02374    283.99093   -2529.0359    2497.6238 
  109000    300.14712    318.28303    281.74509   -2571.8715    2551.2292 
  110000      301.473    317.26528    278.06527   -2617.1698     2592.649 
  111000    300.03068    320.50847    285.90029   -2664.3248    2623.4394 
  112000    300.54243    320.18787    284.58227   -2710.1496    2672.3351 
  113000     300.5338    322.18743    280.60924   -2748.7785    2715.0102 
  114000    300.20076    315.20871    283.08188   -2779.4423    2760.2623 
  115000    300.64715    321.92679    282.06992   -2833.8604    2800.2525 
  116000    299.49567    315.14771     281.7644    -2850.132    2847.5584 
  117000    300.73103    316.25107    283.07774   -2895.4172    2884.6068 
  118000    299.91988    316.22707    279.45779   -2952.2432    2937.4116 
  119000    300.61269    319.80446    280.60004   -2998.4977    2975.0912 
  120000    300.01954    316.71478    284.77356   -3031.8422    3015.9819 
  121000    300.37157    319.30346    280.28898   -3070.2334      3059.43 
  122000    299.87975    323.08292    279.74222   -3108.0987    3100.2858 
  123000    300.32688    320.96594    281.12806   -3155.1553    3147.8597 
  124000    299.95531    317.37008    282.82485   -3202.5126    3184.7243 
  125000    300.71452    319.17943    284.68987   -3247.3454    3221.5882 
  126000    299.51188    322.43409    281.79579   -3284.5439    3266.3826 
  127000    300.44158    322.25336    280.37797   -3330.6347    3303.3211 
  128000    299.78626     318.4381    284.65618   -3371.9858    3338.8306 
  129000    300.39148    320.28617    281.99162   -3397.4572    3385.5085 
  130000    299.51902    322.55382    277.06816   -3446.0237    3430.1765 
  131000    299.29633    313.22804    277.87845   -3471.7565    3473.5498 
  132000    300.55001    319.38413    288.78076   -3511.8301    3498.6957 
  133000    299.76222     315.7702    281.81569   -3557.8905    3555.1342 
  134000    299.04739    314.62941    279.41627   -3589.0394     3593.111 
  135000    300.17522    320.35824    283.26579   -3635.1594    3630.7305 
  136000    299.56035    316.03983    284.78998   -3669.3139    3670.2037 
  137000    300.38269    324.49297    280.66449   -3725.7651    3717.1771 
  138000    299.37934    318.58761    281.99199    -3758.029    3753.6303 
  139000    299.71342    315.53667    279.53631   -3793.5666    3800.9809 
  140000    299.73114    320.36793    281.40421   -3841.6017    3832.9481 
  141000    299.40846    312.46936    279.80275   -3871.8811    3880.3413 
  142000    299.73313    324.28534    283.05297   -3915.8203    3920.8773 
  143000    299.64566    317.64713    281.39884   -3948.4659    3960.0432 
  144000    298.48921    314.42678    278.08489   -3979.6216    4011.1716 
  145000    298.73911    320.79514    278.25458   -4031.2658    4066.4927 
  145001     298.7829    321.22167    278.15758   -4031.8895    4066.4533 
Loop time of 5463.99 on 32 procs for 100000 steps with 193600 atoms

Performance: 0.791 ns/day, 30.355 hours/ns, 18.302 timesteps/s
89.8% CPU use with 32 MPI tasks x no OpenMP threads

MPI task timing breakdown:
Section |  min time  |  avg time  |  max time  |%varavg| %total
---------------------------------------------------------------
Pair    | 4425.2     | 4488.3     | 4555.8     |  40.9 | 82.14
Neigh   | 0          | 0          | 0          |   0.0 |  0.00
Comm    | 439.86     | 565.11     | 671.1      | 290.5 | 10.34
Output  | 0.094138   | 0.10149    | 0.10493    |   0.7 |  0.00
Modify  | 281.69     | 381.95     | 501.66     | 404.1 |  6.99
Other   |            | 28.51      |            |       |  0.52

Nlocal:    6050 ave 6109 max 5995 min
Histogram: 2 1 4 4 5 5 8 0 2 1
Nghost:    5892.5 ave 5948 max 5834 min
Histogram: 1 2 0 8 5 6 3 4 1 2
Neighs:    0 ave 0 max 0 min
Histogram: 32 0 0 0 0 0 0 0 0 0
FullNghs:  211369 ave 213628 max 209337 min
Histogram: 2 3 2 5 4 7 4 2 2 1

Total # of neighbors = 6763800
Ave neighs/atom = 34.937
Neighbor list builds = 0
Dangerous builds = 0

# thermal conductivity calculation
# reset langevin thermostats to zero energy accumulation
reset_timestep 0
thermo		$c
thermo		500000
compute		ke all ke/atom
variable	temp atom c_ke/1.5/8.617332478e-5
fix		hot all langevin ${thi} ${thi} ${tdamp} 389516 tally yes
fix		hot all langevin 319.9225 ${thi} ${tdamp} 389516 tally yes
fix		hot all langevin 319.9225 319.9225 ${tdamp} 389516 tally yes
fix		hot all langevin 319.9225 319.9225 0.05 389516 tally yes
fix_modify	hot temp Thot
fix		cold all langevin ${tlo} ${tlo} ${tdamp} 46579 tally yes
fix		cold all langevin 280.0775 ${tlo} ${tdamp} 46579 tally yes
fix		cold all langevin 280.0775 280.0775 ${tdamp} 46579 tally yes
fix		cold all langevin 280.0775 280.0775 0.05 46579 tally yes
fix_modify	cold temp Tcold

compute		ch all chunk/atom bin/1d x lower 0.02 units reduced
fix		11 all ave/chunk $a $b $c ch v_temp file sw_${P}.langevin
fix		11 all ave/chunk 100 $b $c ch v_temp file sw_${P}.langevin
fix		11 all ave/chunk 100 5000 $c ch v_temp file sw_${P}.langevin
fix		11 all ave/chunk 100 5000 500000 ch v_temp file sw_${P}.langevin
fix		11 all ave/chunk 100 5000 500000 ch v_temp file sw_40.langevin
thermo_style	custom step temp c_Thot c_Tcold f_hot f_cold

run		${t2nve}
run		500000
Per MPI rank memory allocation (min/avg/max) = 5.118 | 5.12 | 5.121 Mbytes
Step Temp c_Thot c_Tcold f_hot f_cold 
       0     298.7829    321.71587     278.4184           -0           -0 
  500000    300.27748    319.23861     281.2557   -20778.698    20725.497 
Loop time of 27267.8 on 32 procs for 500000 steps with 193600 atoms

Performance: 0.792 ns/day, 30.298 hours/ns, 18.337 timesteps/s
90.0% CPU use with 32 MPI tasks x no OpenMP threads

MPI task timing breakdown:
Section |  min time  |  avg time  |  max time  |%varavg| %total
---------------------------------------------------------------
Pair    | 22233      | 22442      | 22602      |  63.3 | 82.30
Neigh   | 0          | 0          | 0          |   0.0 |  0.00
Comm    | 2099.5     | 2765       | 3277.3     | 743.1 | 10.14
Output  | 0.000859   | 0.0015884  | 0.001714   |   0.4 |  0.00
Modify  | 1406.9     | 1919.4     | 2577       | 901.0 |  7.04
Other   |            | 141.2      |            |       |  0.52

Nlocal:    6050 ave 6086 max 5999 min
Histogram: 1 0 3 2 4 6 5 7 1 3
Nghost:    5892.5 ave 5943 max 5857 min
Histogram: 3 1 6 7 5 4 3 2 0 1
Neighs:    0 ave 0 max 0 min
Histogram: 32 0 0 0 0 0 0 0 0 0
FullNghs:  211345 ave 212767 max 209553 min
Histogram: 1 0 3 5 3 6 6 3 2 3

Total # of neighbors = 6763036
Ave neighs/atom = 34.933
Neighbor list builds = 0
Dangerous builds = 0
clear
next		P
jump		Si.in
Total wall time: 22:31:16
