# temperature
variable	T equal 300
#cold region temperature
#variable        tlo equal 275
variable        tlo equal ${T}-${L}*${cte}/4.0
variable        tlo equal 300-${L}*${cte}/4.0
variable        tlo equal 300-50*${cte}/4.0
variable        tlo equal 300-50*1.5938/4.0
#hot region temperature
#variable        thi equal ${cte}*${L}/2+${tlo}
variable        thi equal ${T}+${L}*${cte}/4.0
variable        thi equal 300+${L}*${cte}/4.0
variable        thi equal 300+50*${cte}/4.0
variable        thi equal 300+50*1.5938/4.0

#time step (picoseconds)
variable	dt equal 0.0005 # 0.5 femtoseconds
#number of time steps for NPT
variable	tnpt equal 5000
#number of time steps for NVT
variable	tnvt equal 40000
#number of time steps for first NVE
variable	t1nve equal 100000
#number of time steps for second NVE
variable	t2nve equal 500000

################### Variable Based on LAMMPS Documentation ######################
variable	a equal 100
variable	c equal ${t2nve}
variable	c equal 500000
variable	b equal $c/$a
variable	b equal 500000/$a
variable	b equal 500000/100
variable	tdamp equal ${dt}*100
variable	tdamp equal 0.0005*100
variable	pdamp equal ${dt}*1000
variable	pdamp equal 0.0005*1000

#----------------------------------------------------------------------------------------
# setup problem
dimension       3
boundary        p p p
atom_style      atomic
lattice 	diamond ${LC} origin 0.0 0.0 0.0 orient x 1 0 0 orient y 0 1 0 orient z 0 0 1
lattice 	diamond 5.43 origin 0.0 0.0 0.0 orient x 1 0 0 orient y 0 1 0 orient z 0 0 1
Lattice spacing in x,y,z = 5.43 5.43 5.43
region          0 block 0 $L 0 $W 0 $H units lattice side in
region          0 block 0 50 0 $W 0 $H units lattice side in
region          0 block 0 50 0 22 0 $H units lattice side in
region          0 block 0 50 0 22 0 22 units lattice side in
create_box      1 0
Created orthogonal box = (0 0 0) to (271.5 119.46 119.46)
  8 by 2 by 2 MPI processor grid
create_atoms    1 region 0
Created 193600 atoms
mass		1 28.0855
#dump		1 all xyz 1000 Si_W_${W}nm.xyz
#dump_modify	1 element Si

############################################
pair_style   sw
pair_coeff   * * Si${P}.sw Si
pair_coeff   * * Si1.sw Si
thermo		100
thermo_style custom step lx
min_style cg
minimize 0.0 1.0e-8 10000 100000
WARNING: Using 'neigh_modify every 1 delay 0 check yes' setting during minimization (../min.cpp:168)
Neighbor list info ...
  update every 1 steps, delay 0 steps, check yes
  max neighbors/atom: 2000, page size: 100000
  master list distance cutoff = 5.77774
  ghost atom cutoff = 5.77774
  binsize = 2.88887, bins = 94 42 42
  1 neighbor lists, perpetual/occasional/extra = 1 0 0
  (1) pair sw, perpetual
      attributes: full, newton on
      pair build: full/bin/atomonly
      stencil: full/bin/3d
      bin: standard
Per MPI rank memory allocation (min/avg/max) = 5.239 | 5.24 | 5.242 Mbytes
Step Lx 
       0        271.5 
       1        271.5 
Loop time of 0.0420712 on 32 procs for 1 steps with 193600 atoms

77.7% CPU use with 32 MPI tasks x no OpenMP threads

Minimization stats:
  Stopping criterion = force tolerance
  Energy initial, next-to-last, final = 
        -865183.474998     -865183.474998     -865183.474998
  Force two-norm initial, final = 9.61559e-11 9.60855e-11
  Force max component initial, final = 5.59397e-13 5.61776e-13
  Final line search alpha, max atom move = 1 5.61776e-13
  Iterations, force evaluations = 1 2

MPI task timing breakdown:
Section |  min time  |  avg time  |  max time  |%varavg| %total
---------------------------------------------------------------
Pair    | 0.024834   | 0.025195   | 0.025549   |   0.1 | 59.89
Neigh   | 0          | 0          | 0          |   0.0 |  0.00
Comm    | 0.006594   | 0.009658   | 0.013184   |   1.9 | 22.96
Output  | 0          | 0          | 0          |   0.0 |  0.00
Modify  | 0          | 0          | 0          |   0.0 |  0.00
Other   |            | 0.007218   |            |       | 17.16

Nlocal:    6050 ave 6050 max 6050 min
Histogram: 32 0 0 0 0 0 0 0 0 0
Nghost:    5892.5 ave 5893 max 5892 min
Histogram: 16 0 0 0 0 0 0 0 0 16
Neighs:    0 ave 0 max 0 min
Histogram: 32 0 0 0 0 0 0 0 0 0
FullNghs:  205700 ave 205700 max 205700 min
Histogram: 32 0 0 0 0 0 0 0 0 0

Total # of neighbors = 6582400
Ave neighs/atom = 34
Neighbor list builds = 0
Dangerous builds = 0
timestep     ${dt}
timestep     0.0005
velocity 	all create $T 492845
velocity 	all create 300 492845


fix 		NPT all npt temp $T $T ${tdamp} iso 0.0 0.0 ${pdamp}
fix 		NPT all npt temp 300 $T ${tdamp} iso 0.0 0.0 ${pdamp}
fix 		NPT all npt temp 300 300 ${tdamp} iso 0.0 0.0 ${pdamp}
fix 		NPT all npt temp 300 300 0.05 iso 0.0 0.0 ${pdamp}
fix 		NPT all npt temp 300 300 0.05 iso 0.0 0.0 0.5
thermo		100
thermo_style custom step lx press
run		${tnpt}
run		5000
Per MPI rank memory allocation (min/avg/max) = 4.114 | 4.115 | 4.117 Mbytes
Step Lx Press 
       1        271.5   -2795.2788 
     100    271.10537    1516.8437 
     200    271.33081   -629.88273 
     300    271.25232   0.31992664 
     400    271.26462    319.74691 
     500    271.31859   -242.74843 
     600     271.2908    144.44827 
     700    271.32298    17.789756 
     800    271.35141   -190.19763 
     900    271.33372    185.39391 
    1000    271.37097   -28.939952 
    1100    271.37764   -24.699656 
    1200    271.38894    53.559413 
    1300    271.40491   -53.639475 
    1400    271.40964   -1.4385356 
    1500    271.41647    30.735946 
    1600    271.41586     5.087785 
    1700    271.41368   -21.137262 
    1800    271.41234   -9.5001775 
    1900     271.4023    58.229659 
    2000    271.41265   -39.592802 
    2100    271.41241    13.455408 
    2200     271.4131     23.85393 
    2300    271.41729   -30.731572 
    2400    271.40995    16.983469 
    2500    271.41079   -20.562535 
    2600    271.40232     51.93986 
    2700     271.4177    -59.96562 
    2800    271.41396    5.4395624 
    2900    271.40909    82.691328 
    3000    271.41914   -98.891605 
    3100    271.40521    66.504318 
    3200    271.41006   -30.683849 
    3300    271.41591   -20.412231 
    3400    271.39974    96.917398 
    3500    271.43531   -187.55086 
    3600    271.38536    262.83375 
    3700    271.44107   -305.79164 
    3800     271.3878    239.42377 
    3900    271.41667   -74.649771 
    4000    271.42157   -131.26877 
    4100    271.39801     203.4628 
    4200    271.42402   -145.45707 
    4300    271.41306      10.9019 
    4400    271.39817    118.21308 
    4500    271.42884    -187.3183 
    4600    271.39358    183.41137 
    4700    271.42394   -111.86014 
    4800    271.41134    23.826492 
    4900    271.40786    63.008927 
    5000    271.41888   -121.45964 
    5001    271.41884    -121.3688 
Loop time of 133.655 on 32 procs for 5000 steps with 193600 atoms

Performance: 1.616 ns/day, 14.851 hours/ns, 37.410 timesteps/s
82.4% CPU use with 32 MPI tasks x no OpenMP threads

MPI task timing breakdown:
Section |  min time  |  avg time  |  max time  |%varavg| %total
---------------------------------------------------------------
Pair    | 91.084     | 92.392     | 98.358     |  13.4 | 69.13
Neigh   | 0          | 0          | 0          |   0.0 |  0.00
Comm    | 13.784     | 22.405     | 29.424     |  87.7 | 16.76
Output  | 0.029291   | 0.2056     | 0.2472     |  18.2 |  0.15
Modify  | 11.174     | 17.505     | 26.101     |  97.4 | 13.10
Other   |            | 1.147      |            |       |  0.86

Nlocal:    6050 ave 6050 max 6050 min
Histogram: 32 0 0 0 0 0 0 0 0 0
Nghost:    5892.5 ave 5893 max 5892 min
Histogram: 16 0 0 0 0 0 0 0 0 16
Neighs:    0 ave 0 max 0 min
Histogram: 32 0 0 0 0 0 0 0 0 0
FullNghs:  205700 ave 205700 max 205700 min
Histogram: 32 0 0 0 0 0 0 0 0 0

Total # of neighbors = 6582400
Ave neighs/atom = 34
Neighbor list builds = 0
Dangerous builds = 0
unfix		NPT
variable	length equal lx/${LC}
variable	length equal lx/5.43

################### Geometrical Parameters After Relaxation ###############################
# Thermostat_width
variable	TW equal ${length}/40
variable	TW equal 49.9850537417185/40
# Hot_Start
variable	hs equal ${length}/4-${TW}
variable	hs equal 49.9850537417185/4-${TW}
variable	hs equal 49.9850537417185/4-1.24962634354296
# Hot_End
variable	he equal ${length}/4+${TW}
variable	he equal 49.9850537417185/4+${TW}
variable	he equal 49.9850537417185/4+1.24962634354296
# Cold_Start
variable	cs equal 3*${length}/4-${TW}
variable	cs equal 3*49.9850537417185/4-${TW}
variable	cs equal 3*49.9850537417185/4-1.24962634354296
# Cold_End
variable	ce equal 3*${length}/4+${TW}
variable	ce equal 3*49.9850537417185/4+${TW}
variable	ce equal 3*49.9850537417185/4+1.24962634354296
###########################################################################################

################### Defining Thermostat ###################################################
region 		hot block ${hs} ${he} EDGE EDGE EDGE EDGE
region 		hot block 11.2466370918867 ${he} EDGE EDGE EDGE EDGE
region 		hot block 11.2466370918867 13.7458897789726 EDGE EDGE EDGE EDGE
region 		cold block ${cs} ${ce} EDGE EDGE EDGE EDGE
region 		cold block 36.2391639627459 ${ce} EDGE EDGE EDGE EDGE
region 		cold block 36.2391639627459 38.7384166498318 EDGE EDGE EDGE EDGE
group		test region cold
9554 atoms in group test
group		test1 region hot
9590 atoms in group test1
compute		Thot all temp/region hot
compute         Tcold all temp/region cold
###########################################################################################

fix		NVT all nvt temp $T $T ${tdamp}
fix		NVT all nvt temp 300 $T ${tdamp}
fix		NVT all nvt temp 300 300 ${tdamp}
fix		NVT all nvt temp 300 300 0.05
thermo		1000
thermo_style	custom step temp
run		${tnvt}
run		40000
Per MPI rank memory allocation (min/avg/max) = 4.116 | 4.119 | 4.121 Mbytes
Step Temp 
    5001    297.36742 
    6000    296.19906 
    7000    302.58411 
    8000    301.64657 
    9000    300.75791 
   10000    299.55132 
   11000    299.44645 
   12000     299.9532 
   13000     297.9558 
   14000    299.44094 
   15000    301.02256 
   16000    299.50594 
   17000    299.30585 
   18000    300.25434 
   19000    298.59185 
   20000    300.84957 
   21000    299.63508 
   22000    300.20162 
   23000    301.02675 
   24000    299.97013 
   25000    299.47372 
   26000    301.06506 
   27000    300.82426 
   28000    299.13496 
   29000    300.61028 
   30000     300.1786 
   31000    300.63696 
   32000    300.08553 
   33000    300.28171 
   34000    300.74264 
   35000    299.22552 
   36000     300.4056 
   37000    300.44449 
   38000    299.29909 
   39000    299.29628 
   40000    300.29139 
   41000    299.51018 
   42000     299.1463 
   43000    300.91492 
   44000    299.71002 
   45000    299.33388 
   45001    299.39397 
Loop time of 1050.35 on 32 procs for 40000 steps with 193600 atoms

Performance: 1.645 ns/day, 14.588 hours/ns, 38.083 timesteps/s
84.1% CPU use with 32 MPI tasks x no OpenMP threads

MPI task timing breakdown:
Section |  min time  |  avg time  |  max time  |%varavg| %total
---------------------------------------------------------------
Pair    | 748.53     | 759.85     | 778.92     |  21.7 | 72.34
Neigh   | 0          | 0          | 0          |   0.0 |  0.00
Comm    | 127.56     | 181.63     | 221.9      | 218.0 | 17.29
Output  | 0.022892   | 0.025407   | 0.028367   |   0.8 |  0.00
Modify  | 48.243     | 92.621     | 141.42     | 293.6 |  8.82
Other   |            | 16.23      |            |       |  1.55

Nlocal:    6050 ave 6116 max 6001 min
Histogram: 2 2 4 6 8 3 6 0 0 1
Nghost:    5892.5 ave 5942 max 5827 min
Histogram: 1 0 0 6 5 5 9 2 2 2
Neighs:    0 ave 0 max 0 min
Histogram: 32 0 0 0 0 0 0 0 0 0
FullNghs:  208579 ave 210873 max 206848 min
Histogram: 2 2 5 3 10 2 6 1 0 1

Total # of neighbors = 6674520
Ave neighs/atom = 34.4758
Neighbor list builds = 0
Dangerous builds = 0
velocity	all scale $T
velocity	all scale 300
unfix		NVT

fix		NVE all nve
fix		hot all langevin ${thi} ${thi} ${tdamp} 389516 tally yes
fix		hot all langevin 319.9225 ${thi} ${tdamp} 389516 tally yes
fix		hot all langevin 319.9225 319.9225 ${tdamp} 389516 tally yes
fix		hot all langevin 319.9225 319.9225 0.05 389516 tally yes
fix_modify	hot temp Thot
fix		cold all langevin ${tlo} ${tlo} ${tdamp} 46579 tally yes
fix		cold all langevin 280.0775 ${tlo} ${tdamp} 46579 tally yes
fix		cold all langevin 280.0775 280.0775 ${tdamp} 46579 tally yes
fix		cold all langevin 280.0775 280.0775 0.05 46579 tally yes
fix_modify	cold temp Tcold

thermo_style	custom step temp c_Thot c_Tcold f_hot f_cold
run		${t1nve}
run		100000
Per MPI rank memory allocation (min/avg/max) = 4.866 | 4.869 | 4.871 Mbytes
Step Temp c_Thot c_Tcold f_hot f_cold 
   45001          300    297.51281    302.51575           -0           -0 
   46000    298.16385    316.49501    277.75469    -61.87582    89.516997 
   47000    299.20721    318.42516    278.11722   -89.675194    115.62924 
   48000    299.71061    316.87502    280.90691    -123.5238    126.27853 
   49000    300.06121    322.41164    280.05204   -156.78129    160.64661 
   50000    299.39779    318.72253    282.68437   -176.01425    185.77536 
   51000    298.51647    317.37107    281.47303   -195.52817     213.1315 
   52000    299.59981    315.53995    281.98954   -224.59169    241.09867 
   53000    299.60703    317.93794    281.96165   -260.26285    269.80854 
   54000    300.30184    321.95268    284.42477   -301.91372    302.62815 
   55000    299.20558    317.91302    279.45993    -326.4524    343.83916 
   56000    299.55851    314.60652    278.21317   -359.11341    373.77262 
   57000    300.55678    320.63956    280.77256   -408.13419    407.38692 
   58000    300.19853    319.69644    279.13537   -450.06867    446.66956 
   59000    300.11687    319.81381    279.78501   -484.89978    481.30107 
   60000    300.09854    320.30981     282.3816   -512.43537    511.01747 
   61000    299.73376    316.16063    276.41665    -550.1557    553.45451 
   62000    300.17056    321.32922    281.29083   -596.86985    578.46093 
   63000    300.26722    318.42085    280.32491   -620.69735    606.45508 
   64000    300.61564    316.89484    282.84758   -669.66388     647.4365 
   65000    300.02084    317.23195    283.99566    -709.7734    682.94105 
   66000    300.85927    312.62376    282.60377   -744.93822     715.5297 
   67000    300.64351    317.03923     281.6686   -787.20541    745.64257 
   68000    301.49743    314.27972    280.60584   -815.78319    784.20367 
   69000    300.28232    322.25715    280.83786   -878.34027    837.82554 
   70000    301.03954    318.43368    280.93111   -904.41998    870.85393 
   71000    300.69918     322.0012     281.0358   -940.57187     905.3494 
   72000    300.72386     319.8046    285.46729   -974.94991    935.11703 
   73000    300.08088    321.79647    285.28432    -1017.171     984.8934 
   74000    300.34061    322.97185    277.44241   -1050.0547    1042.0288 
   75000    299.97205     319.1542      281.962   -1073.9903    1076.8808 
   76000    299.41418    318.09676     278.1393   -1117.5652    1121.9359 
   77000    299.78553    317.89034    284.39112   -1169.0693    1154.1185 
   78000       299.83    319.01585    279.28484   -1195.6474    1207.2208 
   79000    300.01928    318.78209    285.58602   -1241.2712     1226.381 
   80000     300.4771    319.08072    283.43142   -1278.2322    1261.6882 
   81000     300.5283    317.80717    282.53947   -1314.7237    1307.4502 
   82000    300.14071    316.72378    284.65927   -1345.2095    1344.1433 
   83000     300.7032    317.02769    278.69363   -1376.6184    1374.1764 
   84000    300.17057    319.02254    283.97664   -1422.2135    1407.5113 
   85000    300.60521    319.03564    277.42072   -1466.8171    1463.8198 
   86000    300.65647    315.40846    281.95883   -1502.7906      1501.68 
   87000     299.9091    314.62209    281.93999   -1550.1164    1538.3838 
   88000    300.26559    318.52864    281.58646   -1591.8156    1570.5379 
   89000    301.10548    321.01491    282.92948   -1627.0161    1602.5617 
   90000     300.2618    317.85783    279.19041   -1655.8923     1645.524 
   91000    300.38627    316.69454    281.62615   -1693.2679    1679.9406 
   92000    299.21332     312.2117    283.77759   -1725.0117     1721.694 
   93000    300.09716    321.65483    279.59915   -1771.4931    1759.1988 
   94000    300.67131    320.98488    282.37061   -1813.0603    1789.4533 
   95000    300.20656    315.59542    279.75186    -1847.534    1834.4785 
   96000    300.33075    316.45481      283.985   -1896.1265    1866.4213 
   97000    300.35184    317.53695    282.04125   -1927.2359    1905.7641 
   98000     300.4909    319.61844    280.21239   -1965.9971    1950.4793 
   99000    300.20329    314.79951    281.55098   -2005.8397    1988.9222 
  100000    300.61063    319.09953    280.80721   -2055.5009     2026.455 
  101000    300.31209    316.06009    278.22624   -2086.0818    2071.2461 
  102000    300.78799    317.34123    278.32222   -2133.5188    2114.7083 
  103000    300.19384    319.97607    283.27194   -2166.8239    2152.2698 
  104000    299.52076     315.9885    280.13977      -2188.9    2187.0539 
  105000    299.30418    313.34206    279.71695   -2233.5035    2228.4336 
  106000    299.60495    314.84013    280.69974   -2267.5742     2272.632 
  107000     300.5158    321.32391    281.34082   -2314.8417    2313.3593 
  108000    299.19717     314.7068     280.5467   -2343.5078    2351.6477 
  109000    300.77201    319.31412    284.77445   -2395.3322    2385.4671 
  110000    299.86448    321.02632    284.54828   -2432.7587    2420.3335 
  111000    299.65075    316.87779    277.59849   -2464.7286    2462.2497 
  112000    300.06172    318.47384    281.94629   -2495.1886    2487.0408 
  113000    299.92009    318.70844    281.67264   -2529.9185    2518.0767 
  114000    300.82132    316.75445    283.44383   -2581.6708    2555.9121 
  115000    299.76546    316.24263    281.62397   -2622.2139    2601.2655 
  116000    300.16078    314.85183    278.52975   -2657.7775    2637.8706 
  117000    300.08076    315.52195    283.38382   -2689.7205    2678.1158 
  118000    301.28636    317.89706    281.35274   -2745.9638    2720.3079 
  119000    300.78899    326.48388     285.4417   -2781.8223    2748.3026 
  120000    301.12481    320.69596     282.8072   -2814.2911    2791.1751 
  121000     299.9691     315.7364    280.17763   -2848.4738    2839.1241 
  122000    299.67749    318.45782    283.63727   -2891.2743    2870.6347 
  123000    299.69933     316.1906    279.58575   -2921.9011    2915.5165 
  124000     299.7561    318.82617    280.83093   -2964.4364    2956.4946 
  125000    300.78421    318.84355    280.75466   -3005.0088    2996.4797 
  126000    299.78202    315.77804    279.22932   -3035.8295    3033.7756 
  127000    300.18213    325.25054    280.84736   -3090.8372    3062.4362 
  128000    299.89787    319.46993    280.29321   -3117.0075     3109.213 
  129000    300.83306    313.31014    282.18197   -3149.9516     3141.215 
  130000    299.73411       317.92    281.28616   -3191.3448    3189.1065 
  131000    299.92483     320.7163    282.62085   -3233.6355    3223.1488 
  132000    300.61044    320.59607    280.96023   -3262.4678    3254.9294 
  133000    300.23753      312.091    282.55762   -3296.5544    3297.3774 
  134000    300.59422    324.68657    277.91287   -3354.4989     3334.545 
  135000     299.9625    314.66013    276.32164   -3379.1328    3373.4414 
  136000    300.70334    316.45221    284.00912   -3422.1123     3400.032 
  137000    300.42072     315.4205    284.56234   -3462.9234    3446.1837 
  138000    300.31662    319.02802    279.91143   -3509.0959    3488.4574 
  139000    300.97312    318.56025     285.9106   -3541.9108     3515.224 
  140000    300.48813    320.89505    280.92675   -3581.7566    3556.6006 
  141000    300.25041    317.46697    282.85991    -3621.714    3601.5384 
  142000    300.17083    325.60407    278.78559   -3663.1429    3647.1539 
  143000    300.30344    317.78077     280.8301   -3685.3712    3689.0207 
  144000    299.91996    317.15092    281.01201    -3724.522    3725.3331 
  145000    299.63862    317.21195    283.71792   -3754.5212    3761.7387 
  145001     299.6724     317.1967     284.4068   -3754.3152    3761.3144 
Loop time of 2755.39 on 32 procs for 100000 steps with 193600 atoms

Performance: 1.568 ns/day, 15.308 hours/ns, 36.292 timesteps/s
84.0% CPU use with 32 MPI tasks x no OpenMP threads

MPI task timing breakdown:
Section |  min time  |  avg time  |  max time  |%varavg| %total
---------------------------------------------------------------
Pair    | 1858.1     | 1896.2     | 1949.1     |  44.4 | 68.82
Neigh   | 0          | 0          | 0          |   0.0 |  0.00
Comm    | 340.56     | 463.59     | 573.6      | 318.5 | 16.82
Output  | 0.10332    | 0.111      | 0.11441    |   0.8 |  0.00
Modify  | 253.5      | 360.37     | 478.47     | 389.0 | 13.08
Other   |            | 35.1       |            |       |  1.27

Nlocal:    6050 ave 6116 max 6000 min
Histogram: 2 3 5 5 5 5 2 4 0 1
Nghost:    5892.5 ave 5943 max 5827 min
Histogram: 1 0 4 2 5 6 4 5 3 2
Neighs:    0 ave 0 max 0 min
Histogram: 32 0 0 0 0 0 0 0 0 0
FullNghs:  208566 ave 210759 max 206645 min
Histogram: 2 3 4 4 3 8 2 4 1 1

Total # of neighbors = 6674126
Ave neighs/atom = 34.4738
Neighbor list builds = 0
Dangerous builds = 0

# thermal conductivity calculation
# reset langevin thermostats to zero energy accumulation
reset_timestep 0
thermo		$c
thermo		500000
compute		ke all ke/atom
variable	temp atom c_ke/1.5/8.617332478e-5
fix		hot all langevin ${thi} ${thi} ${tdamp} 389516 tally yes
fix		hot all langevin 319.9225 ${thi} ${tdamp} 389516 tally yes
fix		hot all langevin 319.9225 319.9225 ${tdamp} 389516 tally yes
fix		hot all langevin 319.9225 319.9225 0.05 389516 tally yes
fix_modify	hot temp Thot
fix		cold all langevin ${tlo} ${tlo} ${tdamp} 46579 tally yes
fix		cold all langevin 280.0775 ${tlo} ${tdamp} 46579 tally yes
fix		cold all langevin 280.0775 280.0775 ${tdamp} 46579 tally yes
fix		cold all langevin 280.0775 280.0775 0.05 46579 tally yes
fix_modify	cold temp Tcold

compute		ch all chunk/atom bin/1d x lower 0.02 units reduced
fix		11 all ave/chunk $a $b $c ch v_temp file sw_${P}.langevin
fix		11 all ave/chunk 100 $b $c ch v_temp file sw_${P}.langevin
fix		11 all ave/chunk 100 5000 $c ch v_temp file sw_${P}.langevin
fix		11 all ave/chunk 100 5000 500000 ch v_temp file sw_${P}.langevin
fix		11 all ave/chunk 100 5000 500000 ch v_temp file sw_1.langevin
thermo_style	custom step temp c_Thot c_Tcold f_hot f_cold

run		${t2nve}
run		500000
Per MPI rank memory allocation (min/avg/max) = 5.118 | 5.12 | 5.121 Mbytes
Step Temp c_Thot c_Tcold f_hot f_cold 
       0     299.6724    317.44188    284.37392           -0           -0 
  500000    299.59861    319.46208    280.24504   -18886.956    18888.802 
Loop time of 14263.3 on 32 procs for 500000 steps with 193600 atoms

Performance: 1.514 ns/day, 15.848 hours/ns, 35.055 timesteps/s
82.4% CPU use with 32 MPI tasks x no OpenMP threads

MPI task timing breakdown:
Section |  min time  |  avg time  |  max time  |%varavg| %total
---------------------------------------------------------------
Pair    | 9275.5     | 9469.3     | 9696.7     |  99.1 | 66.39
Neigh   | 0          | 0          | 0          |   0.0 |  0.00
Comm    | 1776.2     | 2521.3     | 3131       | 843.0 | 17.68
Output  | 0.00085    | 0.001432   | 0.001771   |   0.7 |  0.00
Modify  | 1542.2     | 2096.1     | 2861.2     | 929.6 | 14.70
Other   |            | 176.6      |            |       |  1.24

Nlocal:    6050 ave 6088 max 6005 min
Histogram: 1 2 1 6 4 6 1 4 4 3
Nghost:    5892.34 ave 5936 max 5854 min
Histogram: 3 3 5 0 5 6 5 2 1 2
Neighs:    0 ave 0 max 0 min
Histogram: 32 0 0 0 0 0 0 0 0 0
FullNghs:  208587 ave 210070 max 206909 min
Histogram: 2 1 1 6 5 6 0 6 2 3

Total # of neighbors = 6674792
Ave neighs/atom = 34.4772
Neighbor list builds = 0
Dangerous builds = 0
clear
next		P
jump		Si.in
 units       metal
#----------------------------- User Input Variables --------------------------------------
################### Geometrical Parameters ###############################
variable	P index 1 2 3 4
variable	W equal 22
# Lattice Constant
variable	LC equal 5.43
# Length
variable	L equal 50
# Width
#variable	W equal 6
# Height
variable	H equal ${W}
variable	H equal 22
################### Simulation Condition ###############################
#DT/DX=cte
variable	cte equal 1.5938
log         sw_${P}.log
log         sw_2.log
