# temperature
variable	T equal 300
#cold region temperature
#variable        tlo equal 275
variable        tlo equal ${T}-${L}*${cte}/4.0
variable        tlo equal 300-${L}*${cte}/4.0
variable        tlo equal 300-50*${cte}/4.0
variable        tlo equal 300-50*1.5938/4.0
#hot region temperature
#variable        thi equal ${cte}*${L}/2+${tlo}
variable        thi equal ${T}+${L}*${cte}/4.0
variable        thi equal 300+${L}*${cte}/4.0
variable        thi equal 300+50*${cte}/4.0
variable        thi equal 300+50*1.5938/4.0

#time step (picoseconds)
variable	dt equal 0.0005 # 0.5 femtoseconds
#number of time steps for NPT
variable	tnpt equal 5000
#number of time steps for NVT
variable	tnvt equal 40000
#number of time steps for first NVE
variable	t1nve equal 100000
#number of time steps for second NVE
variable	t2nve equal 500000

################### Variable Based on LAMMPS Documentation ######################
variable	a equal 100
variable	c equal ${t2nve}
variable	c equal 500000
variable	b equal $c/$a
variable	b equal 500000/$a
variable	b equal 500000/100
variable	tdamp equal ${dt}*100
variable	tdamp equal 0.0005*100
variable	pdamp equal ${dt}*1000
variable	pdamp equal 0.0005*1000

#----------------------------------------------------------------------------------------
# setup problem
dimension       3
boundary        p p p
atom_style      atomic
lattice 	diamond ${LC} origin 0.0 0.0 0.0 orient x 1 0 0 orient y 0 1 0 orient z 0 0 1
lattice 	diamond 5.43 origin 0.0 0.0 0.0 orient x 1 0 0 orient y 0 1 0 orient z 0 0 1
Lattice spacing in x,y,z = 5.43 5.43 5.43
region          0 block 0 $L 0 $W 0 $H units lattice side in
region          0 block 0 50 0 $W 0 $H units lattice side in
region          0 block 0 50 0 22 0 $H units lattice side in
region          0 block 0 50 0 22 0 22 units lattice side in
create_box      1 0
Created orthogonal box = (0 0 0) to (271.5 119.46 119.46)
  8 by 2 by 2 MPI processor grid
create_atoms    1 region 0
Created 193600 atoms
mass		1 28.0855
#dump		1 all xyz 1000 Si_W_${W}nm.xyz
#dump_modify	1 element Si

############################################
pair_style   sw
pair_coeff   * * Si${P}.sw Si
pair_coeff   * * Si10.sw Si
thermo		100
thermo_style custom step lx
min_style cg
minimize 0.0 1.0e-8 10000 100000
WARNING: Using 'neigh_modify every 1 delay 0 check yes' setting during minimization (../min.cpp:168)
Neighbor list info ...
  update every 1 steps, delay 0 steps, check yes
  max neighbors/atom: 2000, page size: 100000
  master list distance cutoff = 5.69201
  ghost atom cutoff = 5.69201
  binsize = 2.84601, bins = 96 42 42
  1 neighbor lists, perpetual/occasional/extra = 1 0 0
  (1) pair sw, perpetual
      attributes: full, newton on
      pair build: full/bin/atomonly
      stencil: full/bin/3d
      bin: standard
Per MPI rank memory allocation (min/avg/max) = 5.239 | 5.241 | 5.242 Mbytes
Step Lx 
       0        271.5 
       1        271.5 
Loop time of 0.0422523 on 32 procs for 1 steps with 193600 atoms

72.4% CPU use with 32 MPI tasks x no OpenMP threads

Minimization stats:
  Stopping criterion = force tolerance
  Energy initial, next-to-last, final = 
        -698101.175412     -698101.175412     -698101.175412
  Force two-norm initial, final = 7.59715e-11 7.59152e-11
  Force max component initial, final = 4.4309e-13 4.45077e-13
  Final line search alpha, max atom move = 1 4.45077e-13
  Iterations, force evaluations = 1 2

MPI task timing breakdown:
Section |  min time  |  avg time  |  max time  |%varavg| %total
---------------------------------------------------------------
Pair    | 0.024594   | 0.02491    | 0.025338   |   0.1 | 58.95
Neigh   | 0          | 0          | 0          |   0.0 |  0.00
Comm    | 0.00671    | 0.009809   | 0.013038   |   1.9 | 23.22
Output  | 0          | 0          | 0          |   0.0 |  0.00
Modify  | 0          | 0          | 0          |   0.0 |  0.00
Other   |            | 0.007534   |            |       | 17.83

Nlocal:    6050 ave 6050 max 6050 min
Histogram: 32 0 0 0 0 0 0 0 0 0
Nghost:    5892.5 ave 5893 max 5892 min
Histogram: 16 0 0 0 0 0 0 0 0 16
Neighs:    0 ave 0 max 0 min
Histogram: 32 0 0 0 0 0 0 0 0 0
FullNghs:  205700 ave 205700 max 205700 min
Histogram: 32 0 0 0 0 0 0 0 0 0

Total # of neighbors = 6582400
Ave neighs/atom = 34
Neighbor list builds = 0
Dangerous builds = 0
timestep     ${dt}
timestep     0.0005
velocity 	all create $T 492845
velocity 	all create 300 492845


fix 		NPT all npt temp $T $T ${tdamp} iso 0.0 0.0 ${pdamp}
fix 		NPT all npt temp 300 $T ${tdamp} iso 0.0 0.0 ${pdamp}
fix 		NPT all npt temp 300 300 ${tdamp} iso 0.0 0.0 ${pdamp}
fix 		NPT all npt temp 300 300 0.05 iso 0.0 0.0 ${pdamp}
fix 		NPT all npt temp 300 300 0.05 iso 0.0 0.0 0.5
thermo		100
thermo_style custom step lx press
run		${tnpt}
run		5000
Per MPI rank memory allocation (min/avg/max) = 4.114 | 4.116 | 4.117 Mbytes
Step Lx Press 
       1        271.5   -64210.449 
     100    267.76575   -32239.016 
     200    265.72503   -12870.156 
     300    264.74568   -2610.5206 
     400    264.49269   -109.59057 
     500    264.50062    129.91187 
     600    264.52288    36.434453 
     700    264.53852    96.045867 
     800     264.5627   -24.893222 
     900    264.57809    39.096365 
    1000    264.59741    34.493081 
    1100    264.61329    65.357984 
    1200    264.63213   -22.688106 
    1300    264.64323     36.50735 
    1400     264.6549   -15.750916 
    1500    264.65961    16.975195 
    1600     264.6581   -9.5521602 
    1700    264.65142   -5.6720356 
    1800    264.64869   -7.1993492 
    1900    264.64638    14.676365 
    2000    264.65092    12.146032 
    2100    264.65497    7.7095861 
    2200    264.65721   -10.198365 
    2300    264.65397    12.439742 
    2400    264.65066    -1.219192 
    2500    264.64785 -0.031194765 
    2600    264.64616    22.696366 
    2700    264.65575    9.1328896 
    2800    264.65542      -20.114 
    2900    264.65633    13.395735 
    3000    264.65053   -22.537882 
    3100    264.65054    20.749573 
    3200    264.64634   -10.282655 
    3300     264.6586   -28.318091 
    3400    264.64298    82.272483 
    3500    264.66881   -131.71586 
    3600    264.63901    147.25965 
    3700    264.66293   -133.34914 
    3800    264.64204    80.524241 
    3900    264.65395   -30.333047 
    4000    264.65076    21.706966 
    4100    264.65721    -39.78698 
    4200    264.65121    27.306655 
    4300    264.65547   -47.042815 
    4400     264.6472    42.334595 
    4500    264.65194   -31.208328 
    4600    264.65112    6.7234985 
    4700    264.65245    8.9079609 
    4800     264.6565   -18.256153 
    4900    264.65188    3.1033454 
    5000    264.65044    1.4297763 
    5001    264.65051    1.4915473 
Loop time of 149.79 on 32 procs for 5000 steps with 193600 atoms

Performance: 1.442 ns/day, 16.643 hours/ns, 33.380 timesteps/s
81.7% CPU use with 32 MPI tasks x no OpenMP threads

MPI task timing breakdown:
Section |  min time  |  avg time  |  max time  |%varavg| %total
---------------------------------------------------------------
Pair    | 103.41     | 105.41     | 108.94     |  13.7 | 70.37
Neigh   | 0.11235    | 0.11616    | 0.11841    |   0.4 |  0.08
Comm    | 17.009     | 25.691     | 31.022     |  74.7 | 17.15
Output  | 0.032206   | 0.036742   | 0.03988    |   1.3 |  0.02
Modify  | 12.568     | 17.46      | 22.669     |  80.8 | 11.66
Other   |            | 1.08       |            |       |  0.72

Nlocal:    6050 ave 6134 max 6001 min
Histogram: 5 4 3 6 5 4 2 1 1 1
Nghost:    5892.5 ave 5942 max 5808 min
Histogram: 1 1 1 2 4 5 6 3 4 5
Neighs:    0 ave 0 max 0 min
Histogram: 32 0 0 0 0 0 0 0 0 0
FullNghs:  214017 ave 217433 max 211904 min
Histogram: 5 4 3 5 3 7 2 2 0 1

Total # of neighbors = 6848530
Ave neighs/atom = 35.3746
Neighbor list builds = 9
Dangerous builds = 0
unfix		NPT
variable	length equal lx/${LC}
variable	length equal lx/5.43

################### Geometrical Parameters After Relaxation ###############################
# Thermostat_width
variable	TW equal ${length}/40
variable	TW equal 48.7385832091175/40
# Hot_Start
variable	hs equal ${length}/4-${TW}
variable	hs equal 48.7385832091175/4-${TW}
variable	hs equal 48.7385832091175/4-1.21846458022794
# Hot_End
variable	he equal ${length}/4+${TW}
variable	he equal 48.7385832091175/4+${TW}
variable	he equal 48.7385832091175/4+1.21846458022794
# Cold_Start
variable	cs equal 3*${length}/4-${TW}
variable	cs equal 3*48.7385832091175/4-${TW}
variable	cs equal 3*48.7385832091175/4-1.21846458022794
# Cold_End
variable	ce equal 3*${length}/4+${TW}
variable	ce equal 3*48.7385832091175/4+${TW}
variable	ce equal 3*48.7385832091175/4+1.21846458022794
###########################################################################################

################### Defining Thermostat ###################################################
region 		hot block ${hs} ${he} EDGE EDGE EDGE EDGE
region 		hot block 10.9661812220514 ${he} EDGE EDGE EDGE EDGE
region 		hot block 10.9661812220514 13.4031103825073 EDGE EDGE EDGE EDGE
region 		cold block ${cs} ${ce} EDGE EDGE EDGE EDGE
region 		cold block 35.3354728266102 ${ce} EDGE EDGE EDGE EDGE
region 		cold block 35.3354728266102 37.7724019870661 EDGE EDGE EDGE EDGE
group		test region cold
9583 atoms in group test
group		test1 region hot
9576 atoms in group test1
compute		Thot all temp/region hot
compute         Tcold all temp/region cold
###########################################################################################

fix		NVT all nvt temp $T $T ${tdamp}
fix		NVT all nvt temp 300 $T ${tdamp}
fix		NVT all nvt temp 300 300 ${tdamp}
fix		NVT all nvt temp 300 300 0.05
thermo		1000
thermo_style	custom step temp
run		${tnvt}
run		40000
Per MPI rank memory allocation (min/avg/max) = 4.118 | 4.12 | 4.121 Mbytes
Step Temp 
    5001    300.04067 
    6000    304.01818 
    7000    299.39598 
    8000    299.86774 
    9000    301.22884 
   10000    301.99859 
   11000    298.76075 
   12000    301.39423 
   13000    298.98757 
   14000     299.4551 
   15000    300.75225 
   16000    301.54389 
   17000    299.96372 
   18000    300.69301 
   19000    301.19474 
   20000    299.26526 
   21000    300.23263 
   22000    299.13084 
   23000    298.96589 
   24000    300.44353 
   25000    299.60006 
   26000    299.86352 
   27000    299.68508 
   28000    301.62745 
   29000    299.73549 
   30000    300.25869 
   31000    300.81274 
   32000    300.67468 
   33000    300.95173 
   34000    301.19291 
   35000    299.21501 
   36000    300.40361 
   37000    298.72979 
   38000     298.6184 
   39000    298.95787 
   40000    300.92008 
   41000    300.55374 
   42000    298.90948 
   43000    300.47615 
   44000    299.53145 
   45000    300.65906 
   45001    300.67391 
Loop time of 1170.55 on 32 procs for 40000 steps with 193600 atoms

Performance: 1.476 ns/day, 16.258 hours/ns, 34.172 timesteps/s
83.6% CPU use with 32 MPI tasks x no OpenMP threads

MPI task timing breakdown:
Section |  min time  |  avg time  |  max time  |%varavg| %total
---------------------------------------------------------------
Pair    | 854.64     | 866.45     | 879.55     |  16.7 | 74.02
Neigh   | 0          | 0          | 0          |   0.0 |  0.00
Comm    | 137.5      | 188.64     | 236.01     | 215.0 | 16.12
Output  | 0.02506    | 0.027235   | 0.030158   |   0.9 |  0.00
Modify  | 55.942     | 99.681     | 145.89     | 284.5 |  8.52
Other   |            | 15.74      |            |       |  1.35

Nlocal:    6050 ave 6099 max 5959 min
Histogram: 1 0 0 3 4 5 1 9 5 4
Nghost:    5892.5 ave 5984 max 5844 min
Histogram: 4 5 9 1 5 4 3 0 0 1
Neighs:    0 ave 0 max 0 min
Histogram: 32 0 0 0 0 0 0 0 0 0
FullNghs:  217808 ave 219843 max 213761 min
Histogram: 1 0 0 3 3 6 2 6 7 4

Total # of neighbors = 6969860
Ave neighs/atom = 36.0013
Neighbor list builds = 0
Dangerous builds = 0
velocity	all scale $T
velocity	all scale 300
unfix		NVT

fix		NVE all nve
fix		hot all langevin ${thi} ${thi} ${tdamp} 389516 tally yes
fix		hot all langevin 319.9225 ${thi} ${tdamp} 389516 tally yes
fix		hot all langevin 319.9225 319.9225 ${tdamp} 389516 tally yes
fix		hot all langevin 319.9225 319.9225 0.05 389516 tally yes
fix_modify	hot temp Thot
fix		cold all langevin ${tlo} ${tlo} ${tdamp} 46579 tally yes
fix		cold all langevin 280.0775 ${tlo} ${tdamp} 46579 tally yes
fix		cold all langevin 280.0775 280.0775 ${tdamp} 46579 tally yes
fix		cold all langevin 280.0775 280.0775 0.05 46579 tally yes
fix_modify	cold temp Tcold

thermo_style	custom step temp c_Thot c_Tcold f_hot f_cold
run		${t1nve}
run		100000
Per MPI rank memory allocation (min/avg/max) = 4.868 | 4.87 | 4.871 Mbytes
Step Temp c_Thot c_Tcold f_hot f_cold 
   45001          300    298.84443    299.92501           -0           -0 
   46000      299.228    320.85915    283.17445   -79.578787    76.437685 
   47000    299.30354    319.42566    278.60696   -105.42139     115.6029 
   48000    299.59826    322.72121    278.76677   -121.60716      130.055 
   49000    297.94395    318.33916    280.94216   -138.55895    154.64584 
   50000    300.10854    321.35123    277.88017   -167.46131    175.55821 
   51000    299.30328    321.54418    278.83336   -191.97845    196.57562 
   52000    298.97635    316.72613     283.3946   -213.39463    220.58108 
   53000    298.85934    317.09716    281.98407   -247.14327    252.31314 
   54000    299.40035    318.59961    281.21917   -277.78754    285.22804 
   55000    299.15177    316.75997    282.41041   -306.30765     311.1674 
   56000    299.10892     320.8899    282.22013    -348.6841    346.04982 
   57000    298.81065    318.07487    280.65095   -376.10391    379.38002 
   58000    298.79137     319.6446    284.66386   -413.55861    415.29883 
   59000    299.11718     317.4823    284.10487   -442.92731    448.41126 
   60000    298.92417    317.31092    283.97086   -480.33824    486.49524 
   61000    298.81945    315.03693    277.83362   -521.70375    536.24364 
   62000    299.93632    317.20135    281.71408   -567.85528    555.99272 
   63000      299.522     317.8334    282.46052   -602.20021    595.51814 
   64000    299.51205     320.4277    284.39238   -640.25404    632.08509 
   65000    300.16542    321.60125    283.81298   -676.31997    665.84784 
   66000    299.20987    317.52812    284.59774   -714.26839    711.82279 
   67000    299.18372    314.83511     280.9289   -746.88663    753.01187 
   68000     298.7964    317.74491    281.00629   -793.79081    794.29535 
   69000    299.19114    321.43069    279.98892   -839.30252    835.15526 
   70000    299.42277    320.69305    282.47832   -874.42335    862.86769 
   71000    299.84793    317.42127    288.04416   -917.70975    884.88927 
   72000    299.55731    318.38763     284.1482   -949.50087    934.65111 
   73000    299.57264    321.52266     283.7566   -989.44358    978.68002 
   74000      299.685    316.46308    279.72644   -1033.5348    1016.4648 
   75000    298.93689    314.05674    281.73516   -1074.4136    1044.1222 
   76000     299.7804     321.4423    282.50702     -1123.54    1090.3341 
   77000    299.87615     318.4888    281.74134   -1150.6188    1128.4426 
   78000    300.38494    318.03965    279.37468   -1193.1576    1168.9036 
   79000    300.22817    318.82191    283.08673   -1228.5943    1209.0458 
   80000    300.15706     319.4077    281.02988   -1260.6531    1245.4286 
   81000    299.81375    322.63884    282.66982    -1307.823    1284.7769 
   82000    299.62409    316.34189    279.20612   -1339.6939    1320.6694 
   83000    299.57732    316.48408    284.17781   -1372.1852    1357.2326 
   84000    299.76829    316.95359    281.15254   -1417.0494    1400.3096 
   85000    299.68245    318.88992    279.74186   -1458.7345    1446.6975 
   86000    299.60508    319.11149    278.47811   -1496.6188    1489.0554 
   87000    298.66534    318.75048    283.63053   -1527.7304     1519.937 
   88000    298.75828    320.83918    277.75094   -1558.4326    1568.5176 
   89000    300.08026    317.78888     281.8539    -1595.207    1597.1087 
   90000    299.57099    315.99948    281.58812   -1636.6952     1633.728 
   91000       298.71    320.19579     277.3032   -1663.8044    1675.1219 
   92000    298.99223    323.97731    278.49679   -1704.3827    1719.3022 
   93000    298.74137    320.35511    283.47209   -1748.8889     1754.941 
   94000    299.80315    318.58598    282.39118   -1778.6758    1788.3523 
   95000    298.50084     324.0774    281.83447   -1821.4528     1818.244 
   96000    299.43062    322.21171    279.09064   -1856.8839    1864.3961 
   97000    300.06233    322.37445    283.06959   -1894.2762    1893.6324 
   98000    298.91275    316.61701    279.22753   -1923.2282    1933.1374 
   99000    298.39341    313.85235    277.74958   -1961.5681    1968.7272 
  100000    299.29499    317.99828    278.63143   -2016.6766     2011.416 
  101000    299.05751    312.76002    282.08417   -2031.3084    2032.6678 
  102000    298.25722    319.61184    281.93576   -2078.8505    2076.5845 
  103000    299.21693    319.42343    281.81098   -2125.3655    2116.2357 
  104000    299.13281    319.19736    280.62775   -2157.4333    2162.9678 
  105000     299.2107    319.77197    279.01065   -2203.3369    2195.0524 
  106000     299.9099    317.98344    284.25351   -2231.0318    2227.4466 
  107000    300.02591    321.79694    281.27746   -2283.4977    2265.0211 
  108000    300.33599    317.62236    281.26802   -2310.3826    2295.8212 
  109000    299.60862    316.90551    283.43657   -2359.2029    2330.3007 
  110000    299.25261    323.61855    281.54949   -2385.7521    2384.5101 
  111000    299.42812    321.02957     281.8666   -2422.8561     2414.379 
  112000    299.14826    316.79617    280.02095   -2461.3988    2462.0671 
  113000    299.20852    316.16502    276.30734   -2501.6288    2505.5898 
  114000     299.1438    318.16217    279.24756   -2538.3189    2553.5687 
  115000     298.8102    319.85521    277.30684   -2580.4291     2590.956 
  116000    299.34148    314.70715    277.60192   -2614.3478    2621.3269 
  117000    299.05136    321.36715    279.79373   -2652.5599    2644.6265 
  118000    299.35411    322.52236    279.50652   -2687.1937    2694.1444 
  119000    299.64395    313.55005     281.4486    -2719.461    2730.3101 
  120000    298.88763    318.42385    281.19182   -2759.4534    2763.1757 
  121000     298.6516    321.62022    282.74458   -2800.2629    2799.2707 
  122000    299.34385     312.4892    280.32751   -2837.4788    2838.3606 
  123000    299.43666    317.46917    282.94376     -2884.11     2880.794 
  124000    299.59078    318.37197    278.12664   -2928.4214    2923.0871 
  125000    299.09439     312.1301      280.583   -2954.2133    2958.5758 
  126000    299.36233    309.83852     284.0761   -2999.4332    2987.9511 
  127000    299.62107    320.21614    280.51616   -3051.5306    3035.9341 
  128000    299.46797    319.17251    281.64855   -3092.5342    3072.3416 
  129000    299.05017    321.55075    277.48199   -3129.0398     3115.844 
  130000    299.51494    318.78078    281.98478   -3153.3473    3152.1685 
  131000    299.40633    318.01818    280.41538   -3187.8947    3183.7457 
  132000    299.65356    320.05853    282.73148   -3229.9162    3216.4481 
  133000    299.83995      318.316    284.66945   -3254.6042    3250.0438 
  134000    299.62721    317.59505     279.6952   -3293.6167    3292.1539 
  135000    299.04168    321.32907    280.27095   -3340.7178    3332.7858 
  136000     299.0855    322.43118    280.48893   -3380.1854    3361.7354 
  137000    299.94954     322.6244    278.62231   -3412.7999     3407.073 
  138000    300.08775    315.96483    281.10662   -3450.1042    3436.8673 
  139000    300.28435    320.38945    282.79951   -3485.9856    3477.2625 
  140000    299.08194    318.09569    277.26701   -3528.8098    3511.2755 
  141000    299.78847    324.18434    280.22173   -3567.7622    3539.0751 
  142000    300.07423    320.50613      287.234   -3596.3623     3571.144 
  143000    300.18903    318.57518    280.46888   -3629.8331    3610.4129 
  144000    299.05405    316.73527     279.0276   -3661.2268    3657.6696 
  145000    299.85775    316.31883    284.73692   -3699.1901    3683.3779 
  145001    299.87087     316.7498    284.59441   -3699.7546    3683.6724 
Loop time of 3056.99 on 32 procs for 100000 steps with 193600 atoms

Performance: 1.413 ns/day, 16.983 hours/ns, 32.712 timesteps/s
83.5% CPU use with 32 MPI tasks x no OpenMP threads

MPI task timing breakdown:
Section |  min time  |  avg time  |  max time  |%varavg| %total
---------------------------------------------------------------
Pair    | 2142.5     | 2167.1     | 2194.1     |  27.5 | 70.89
Neigh   | 0          | 0          | 0          |   0.0 |  0.00
Comm    | 353.82     | 478.27     | 587.29     | 315.5 | 15.65
Output  | 0.10826    | 0.12018    | 0.12477    |   1.3 |  0.00
Modify  | 247.98     | 374.39     | 496.5      | 378.5 | 12.25
Other   |            | 37.08      |            |       |  1.21

Nlocal:    6050 ave 6089 max 6002 min
Histogram: 2 1 1 7 4 3 2 5 3 4
Nghost:    5892.5 ave 5940 max 5854 min
Histogram: 4 4 4 2 3 4 7 1 1 2
Neighs:    0 ave 0 max 0 min
Histogram: 32 0 0 0 0 0 0 0 0 0
FullNghs:  217819 ave 219586 max 215906 min
Histogram: 2 0 6 5 3 2 6 2 4 2

Total # of neighbors = 6970214
Ave neighs/atom = 36.0032
Neighbor list builds = 0
Dangerous builds = 0

# thermal conductivity calculation
# reset langevin thermostats to zero energy accumulation
reset_timestep 0
thermo		$c
thermo		500000
compute		ke all ke/atom
variable	temp atom c_ke/1.5/8.617332478e-5
fix		hot all langevin ${thi} ${thi} ${tdamp} 389516 tally yes
fix		hot all langevin 319.9225 ${thi} ${tdamp} 389516 tally yes
fix		hot all langevin 319.9225 319.9225 ${tdamp} 389516 tally yes
fix		hot all langevin 319.9225 319.9225 0.05 389516 tally yes
fix_modify	hot temp Thot
fix		cold all langevin ${tlo} ${tlo} ${tdamp} 46579 tally yes
fix		cold all langevin 280.0775 ${tlo} ${tdamp} 46579 tally yes
fix		cold all langevin 280.0775 280.0775 ${tdamp} 46579 tally yes
fix		cold all langevin 280.0775 280.0775 0.05 46579 tally yes
fix_modify	cold temp Tcold

compute		ch all chunk/atom bin/1d x lower 0.02 units reduced
fix		11 all ave/chunk $a $b $c ch v_temp file sw_${P}.langevin
fix		11 all ave/chunk 100 $b $c ch v_temp file sw_${P}.langevin
fix		11 all ave/chunk 100 5000 $c ch v_temp file sw_${P}.langevin
fix		11 all ave/chunk 100 5000 500000 ch v_temp file sw_${P}.langevin
fix		11 all ave/chunk 100 5000 500000 ch v_temp file sw_10.langevin
thermo_style	custom step temp c_Thot c_Tcold f_hot f_cold

run		${t2nve}
run		500000
Per MPI rank memory allocation (min/avg/max) = 5.118 | 5.12 | 5.121 Mbytes
Step Temp c_Thot c_Tcold f_hot f_cold 
       0    299.87087    316.49727    284.69421           -0           -0 
  500000    300.15662    318.33811    283.21395   -18998.981    18966.995 
Loop time of 15549.7 on 32 procs for 500000 steps with 193600 atoms

Performance: 1.389 ns/day, 17.277 hours/ns, 32.155 timesteps/s
83.1% CPU use with 32 MPI tasks x no OpenMP threads

MPI task timing breakdown:
Section |  min time  |  avg time  |  max time  |%varavg| %total
---------------------------------------------------------------
Pair    | 10676      | 10840      | 11012      |  71.1 | 69.71
Neigh   | 0          | 0          | 0          |   0.0 |  0.00
Comm    | 1901.8     | 2536       | 3139.2     | 779.5 | 16.31
Output  | 0.000885   | 0.0016032  | 0.00169    |   0.3 |  0.00
Modify  | 1353.3     | 1996.5     | 2704.3     | 895.4 | 12.84
Other   |            | 177.1      |            |       |  1.14

Nlocal:    6050 ave 6091 max 6009 min
Histogram: 1 1 4 5 6 5 4 3 1 2
Nghost:    5892.5 ave 5933 max 5852 min
Histogram: 2 1 3 4 4 7 5 4 1 1
Neighs:    0 ave 0 max 0 min
Histogram: 32 0 0 0 0 0 0 0 0 0
FullNghs:  217926 ave 219958 max 216339 min
Histogram: 2 2 5 5 8 2 4 2 1 1

Total # of neighbors = 6973616
Ave neighs/atom = 36.0207
Neighbor list builds = 0
Dangerous builds = 0
clear
next		P
jump		Si.in
 units       metal
#----------------------------- User Input Variables --------------------------------------
################### Geometrical Parameters ###############################
variable	P index 9 10 11 12
variable	W equal 22
# Lattice Constant
variable	LC equal 5.43
# Length
variable	L equal 50
# Width
#variable	W equal 6
# Height
variable	H equal ${W}
variable	H equal 22
################### Simulation Condition ###############################
#DT/DX=cte
variable	cte equal 1.5938
log         sw_${P}.log
log         sw_11.log
