# temperature
variable	T equal 300
#cold region temperature
#variable        tlo equal 275
variable        tlo equal ${T}-${L}*${cte}/4.0
variable        tlo equal 300-${L}*${cte}/4.0
variable        tlo equal 300-50*${cte}/4.0
variable        tlo equal 300-50*1.5938/4.0
#hot region temperature
#variable        thi equal ${cte}*${L}/2+${tlo}
variable        thi equal ${T}+${L}*${cte}/4.0
variable        thi equal 300+${L}*${cte}/4.0
variable        thi equal 300+50*${cte}/4.0
variable        thi equal 300+50*1.5938/4.0

#time step (picoseconds)
variable	dt equal 0.0005 # 0.5 femtoseconds
#number of time steps for NPT
variable	tnpt equal 5000
#number of time steps for NVT
variable	tnvt equal 40000
#number of time steps for first NVE
variable	t1nve equal 100000
#number of time steps for second NVE
variable	t2nve equal 500000

################### Variable Based on LAMMPS Documentation ######################
variable	a equal 100
variable	c equal ${t2nve}
variable	c equal 500000
variable	b equal $c/$a
variable	b equal 500000/$a
variable	b equal 500000/100
variable	tdamp equal ${dt}*100
variable	tdamp equal 0.0005*100
variable	pdamp equal ${dt}*1000
variable	pdamp equal 0.0005*1000

#----------------------------------------------------------------------------------------
# setup problem
dimension       3
boundary        p p p
atom_style      atomic
lattice 	diamond ${LC} origin 0.0 0.0 0.0 orient x 1 0 0 orient y 0 1 0 orient z 0 0 1
lattice 	diamond 5.43 origin 0.0 0.0 0.0 orient x 1 0 0 orient y 0 1 0 orient z 0 0 1
Lattice spacing in x,y,z = 5.43 5.43 5.43
region          0 block 0 $L 0 $W 0 $H units lattice side in
region          0 block 0 50 0 $W 0 $H units lattice side in
region          0 block 0 50 0 22 0 $H units lattice side in
region          0 block 0 50 0 22 0 22 units lattice side in
create_box      1 0
Created orthogonal box = (0 0 0) to (271.5 119.46 119.46)
  8 by 2 by 2 MPI processor grid
create_atoms    1 region 0
Created 193600 atoms
mass		1 28.0855
#dump		1 all xyz 1000 Si_W_${W}nm.xyz
#dump_modify	1 element Si

############################################
pair_style   sw
pair_coeff   * * Si${P}.sw Si
pair_coeff   * * Si5.sw Si
thermo		100
thermo_style custom step lx
min_style cg
minimize 0.0 1.0e-8 10000 100000
WARNING: Using 'neigh_modify every 1 delay 0 check yes' setting during minimization (../min.cpp:168)
Neighbor list info ...
  update every 1 steps, delay 0 steps, check yes
  max neighbors/atom: 2000, page size: 100000
  master list distance cutoff = 5.62099
  ghost atom cutoff = 5.62099
  binsize = 2.81049, bins = 97 43 43
  1 neighbor lists, perpetual/occasional/extra = 1 0 0
  (1) pair sw, perpetual
      attributes: full, newton on
      pair build: full/bin/atomonly
      stencil: full/bin/3d
      bin: standard
Per MPI rank memory allocation (min/avg/max) = 5.239 | 5.239 | 5.239 Mbytes
Step Lx 
       0        271.5 
       1        271.5 
Loop time of 0.072032 on 32 procs for 1 steps with 193600 atoms

74.7% CPU use with 32 MPI tasks x no OpenMP threads

Minimization stats:
  Stopping criterion = force tolerance
  Energy initial, next-to-last, final = 
        -700300.144183     -700300.144183     -700300.144183
  Force two-norm initial, final = 7.82294e-11 7.81751e-11
  Force max component initial, final = 4.54936e-13 4.56584e-13
  Final line search alpha, max atom move = 1 4.56584e-13
  Iterations, force evaluations = 1 2

MPI task timing breakdown:
Section |  min time  |  avg time  |  max time  |%varavg| %total
---------------------------------------------------------------
Pair    | 0.024582   | 0.039081   | 0.054626   |   7.3 | 54.25
Neigh   | 0          | 0          | 0          |   0.0 |  0.00
Comm    | 0.00525    | 0.02062    | 0.04111    |  10.6 | 28.63
Output  | 0          | 0          | 0          |   0.0 |  0.00
Modify  | 0          | 0          | 0          |   0.0 |  0.00
Other   |            | 0.01233    |            |       | 17.12

Nlocal:    6050 ave 6050 max 6050 min
Histogram: 32 0 0 0 0 0 0 0 0 0
Nghost:    5892.5 ave 5893 max 5892 min
Histogram: 16 0 0 0 0 0 0 0 0 16
Neighs:    0 ave 0 max 0 min
Histogram: 32 0 0 0 0 0 0 0 0 0
FullNghs:  205700 ave 205700 max 205700 min
Histogram: 32 0 0 0 0 0 0 0 0 0

Total # of neighbors = 6582400
Ave neighs/atom = 34
Neighbor list builds = 0
Dangerous builds = 0
timestep     ${dt}
timestep     0.0005
velocity 	all create $T 492845
velocity 	all create 300 492845


fix 		NPT all npt temp $T $T ${tdamp} iso 0.0 0.0 ${pdamp}
fix 		NPT all npt temp 300 $T ${tdamp} iso 0.0 0.0 ${pdamp}
fix 		NPT all npt temp 300 300 ${tdamp} iso 0.0 0.0 ${pdamp}
fix 		NPT all npt temp 300 300 0.05 iso 0.0 0.0 ${pdamp}
fix 		NPT all npt temp 300 300 0.05 iso 0.0 0.0 0.5
thermo		100
thermo_style custom step lx press
run		${tnpt}
run		5000
Per MPI rank memory allocation (min/avg/max) = 4.114 | 4.114 | 4.114 Mbytes
Step Lx Press 
       1        271.5    -60514.32 
     100    268.00901   -24786.195 
     200    266.41648   -5307.2049 
     300     265.9707   -493.09885 
     400    265.95323     396.7875 
     500    265.97636   -140.33289 
     600    265.97879    35.894086 
     700    265.98919    107.24108 
     800     266.0077   -121.17876 
     900    265.99961    165.71921 
    1000    266.03496   -139.98153 
    1100    266.01879    134.25887 
    1200    266.04476   -62.436453 
    1300    266.04845   -14.647056 
    1400    266.04678    89.276837 
    1500    266.06271   -100.41861 
    1600    266.05443    57.774327 
    1700    266.05152    11.858668 
    1800    266.05641   -77.399546 
    1900    266.04663    119.90796 
    2000    266.05138   -64.826318 
    2100     266.0588    -2.973384 
    2200    266.04809    77.089595 
    2300    266.06039   -86.308027 
    2400     266.0494     79.94475 
    2500    266.05209    -24.30537 
    2600    266.05183    4.0976694 
    2700    266.05203    21.743027 
    2800    266.05392   -15.639416 
    2900    266.05692   0.49480986 
    3000    266.05334  -0.30377424 
    3100    266.05429   -28.083234 
    3200    266.04764    20.577439 
    3300    266.05022    -5.509253 
    3400    266.05869   -6.9736644 
    3500    266.05401     4.459823 
    3600    266.05086   -5.5875701 
    3700    266.05342    23.678716 
    3800    266.05274   -34.025302 
    3900    266.04642    49.020492 
    4000     266.0595   -1.5123479 
    4100    266.04988   -22.454885 
    4200    266.05424    51.144837 
    4300    266.05385   -37.218019 
    4400    266.04795    14.673335 
    4500    266.05618    24.899928 
    4600    266.04757   -26.357473 
    4700     266.0597   -1.5371674 
    4800    266.04704    25.383066 
    4900      266.059   -68.450021 
    5000    266.04796    60.401083 
    5001    266.04783    62.244202 
Loop time of 88.2265 on 32 procs for 5000 steps with 193600 atoms

Performance: 2.448 ns/day, 9.803 hours/ns, 56.672 timesteps/s
77.9% CPU use with 32 MPI tasks x no OpenMP threads

MPI task timing breakdown:
Section |  min time  |  avg time  |  max time  |%varavg| %total
---------------------------------------------------------------
Pair    | 52.563     | 53.484     | 55.594     |   8.1 | 60.62
Neigh   | 0.083629   | 0.09543    | 0.12831    |   3.7 |  0.11
Comm    | 12.107     | 19.737     | 25.644     |  81.3 | 22.37
Output  | 0.028955   | 0.034816   | 0.037749   |   1.4 |  0.04
Modify  | 7.7184     | 13.811     | 20.82      |  97.1 | 15.65
Other   |            | 1.063      |            |       |  1.21

Nlocal:    6050 ave 6082 max 6012 min
Histogram: 3 2 4 0 2 7 3 6 2 3
Nghost:    5892.5 ave 5930 max 5860 min
Histogram: 3 2 4 5 6 3 0 4 1 4
Neighs:    0 ave 0 max 0 min
Histogram: 32 0 0 0 0 0 0 0 0 0
FullNghs:  206340 ave 207447 max 205044 min
Histogram: 4 1 4 0 2 7 3 6 2 3

Total # of neighbors = 6602884
Ave neighs/atom = 34.1058
Neighbor list builds = 7
Dangerous builds = 0
unfix		NPT
variable	length equal lx/${LC}
variable	length equal lx/5.43

################### Geometrical Parameters After Relaxation ###############################
# Thermostat_width
variable	TW equal ${length}/40
variable	TW equal 48.9959168811747/40
# Hot_Start
variable	hs equal ${length}/4-${TW}
variable	hs equal 48.9959168811747/4-${TW}
variable	hs equal 48.9959168811747/4-1.22489792202937
# Hot_End
variable	he equal ${length}/4+${TW}
variable	he equal 48.9959168811747/4+${TW}
variable	he equal 48.9959168811747/4+1.22489792202937
# Cold_Start
variable	cs equal 3*${length}/4-${TW}
variable	cs equal 3*48.9959168811747/4-${TW}
variable	cs equal 3*48.9959168811747/4-1.22489792202937
# Cold_End
variable	ce equal 3*${length}/4+${TW}
variable	ce equal 3*48.9959168811747/4+${TW}
variable	ce equal 3*48.9959168811747/4+1.22489792202937
###########################################################################################

################### Defining Thermostat ###################################################
region 		hot block ${hs} ${he} EDGE EDGE EDGE EDGE
region 		hot block 11.0240812982643 ${he} EDGE EDGE EDGE EDGE
region 		hot block 11.0240812982643 13.473877142323 EDGE EDGE EDGE EDGE
region 		cold block ${cs} ${ce} EDGE EDGE EDGE EDGE
region 		cold block 35.5220397388517 ${ce} EDGE EDGE EDGE EDGE
region 		cold block 35.5220397388517 37.9718355829104 EDGE EDGE EDGE EDGE
group		test region cold
9579 atoms in group test
group		test1 region hot
9542 atoms in group test1
compute		Thot all temp/region hot
compute         Tcold all temp/region cold
###########################################################################################

fix		NVT all nvt temp $T $T ${tdamp}
fix		NVT all nvt temp 300 $T ${tdamp}
fix		NVT all nvt temp 300 300 ${tdamp}
fix		NVT all nvt temp 300 300 0.05
thermo		1000
thermo_style	custom step temp
run		${tnvt}
run		40000
Per MPI rank memory allocation (min/avg/max) = 4.118 | 4.12 | 4.121 Mbytes
Step Temp 
    5001    299.89539 
    6000    302.02887 
    7000    299.92698 
    8000    298.97819 
    9000    299.71152 
   10000    298.70672 
   11000    300.51865 
   12000    299.30498 
   13000    299.43259 
   14000    300.06019 
   15000    301.35633 
   16000    300.75084 
   17000     297.6753 
   18000     299.1827 
   19000    299.59991 
   20000    300.32254 
   21000    299.10735 
   22000    300.09588 
   23000    300.21863 
   24000    299.01383 
   25000    300.77634 
   26000    299.13775 
   27000    300.22917 
   28000    299.81726 
   29000    300.02755 
   30000    301.43551 
   31000     301.0195 
   32000    300.39139 
   33000    299.19842 
   34000    300.66201 
   35000    300.39426 
   36000    301.28173 
   37000    299.84093 
   38000    301.00751 
   39000    297.95985 
   40000    300.27972 
   41000    299.00519 
   42000    300.11722 
   43000    301.18649 
   44000    299.33501 
   45000    299.64824 
   45001    299.68521 
Loop time of 671.03 on 32 procs for 40000 steps with 193600 atoms

Performance: 2.575 ns/day, 9.320 hours/ns, 59.610 timesteps/s
79.3% CPU use with 32 MPI tasks x no OpenMP threads

MPI task timing breakdown:
Section |  min time  |  avg time  |  max time  |%varavg| %total
---------------------------------------------------------------
Pair    | 424.58     | 431.24     | 439.69     |  15.4 | 64.26
Neigh   | 0          | 0          | 0          |   0.0 |  0.00
Comm    | 106.57     | 151.18     | 192.12     | 220.4 | 22.53
Output  | 0.022088   | 0.02498    | 0.028143   |   1.1 |  0.00
Modify  | 32.667     | 74.801     | 115.96     | 298.9 | 11.15
Other   |            | 13.79      |            |       |  2.06

Nlocal:    6050 ave 6094 max 5984 min
Histogram: 1 1 3 1 1 7 8 3 4 3
Nghost:    5892.44 ave 5959 max 5848 min
Histogram: 3 4 3 8 7 1 1 2 2 1
Neighs:    0 ave 0 max 0 min
Histogram: 32 0 0 0 0 0 0 0 0 0
FullNghs:  207604 ave 209249 max 205186 min
Histogram: 1 1 3 1 1 9 6 4 4 2

Total # of neighbors = 6643328
Ave neighs/atom = 34.3147
Neighbor list builds = 0
Dangerous builds = 0
velocity	all scale $T
velocity	all scale 300
unfix		NVT

fix		NVE all nve
fix		hot all langevin ${thi} ${thi} ${tdamp} 389516 tally yes
fix		hot all langevin 319.9225 ${thi} ${tdamp} 389516 tally yes
fix		hot all langevin 319.9225 319.9225 ${tdamp} 389516 tally yes
fix		hot all langevin 319.9225 319.9225 0.05 389516 tally yes
fix_modify	hot temp Thot
fix		cold all langevin ${tlo} ${tlo} ${tdamp} 46579 tally yes
fix		cold all langevin 280.0775 ${tlo} ${tdamp} 46579 tally yes
fix		cold all langevin 280.0775 280.0775 ${tdamp} 46579 tally yes
fix		cold all langevin 280.0775 280.0775 0.05 46579 tally yes
fix_modify	cold temp Tcold

thermo_style	custom step temp c_Thot c_Tcold f_hot f_cold
run		${t1nve}
run		100000
Per MPI rank memory allocation (min/avg/max) = 4.868 | 4.87 | 4.871 Mbytes
Step Temp c_Thot c_Tcold f_hot f_cold 
   45001          300    304.73049     298.6543           -0           -0 
   46000    300.27566    319.81592    279.93821   -71.938893    70.915337 
   47000    299.79571    324.19467    281.26988   -100.63178    88.397721 
   48000    300.14062    317.90716    281.01571   -110.51553    109.64148 
   49000    300.10741    321.09621    282.79308   -122.00652    118.58282 
   50000    300.03663    316.89934    281.83777   -138.61324    133.45975 
   51000    300.32645    316.38707    281.03858   -155.59288    154.82176 
   52000    299.78238    320.45002    278.04482   -177.16637    179.45914 
   53000    299.67544    320.00882    283.30167   -205.45751    202.62091 
   54000    299.41305    320.20049    279.23615   -225.57348    220.38786 
   55000    300.10927    318.99182    280.04844   -243.26949     240.4043 
   56000    299.78949    316.96287    280.77507   -271.26601    263.91601 
   57000    299.41761    316.30501    278.56486   -300.45942    291.20171 
   58000    298.97352    317.09946    276.82802   -322.11311    311.74231 
   59000    299.48075    316.79037    279.75157   -337.43371    347.52885 
   60000    299.22703    321.37153    279.79509   -367.36604    376.87255 
   61000    299.37355    312.41218    281.97938   -393.03379    404.18667 
   62000    299.19523    321.40804    278.98815   -436.52697    436.67562 
   63000    300.06999    323.89078    276.66278   -467.69793    471.96481 
   64000    299.83152    320.02896     284.9294   -481.11655    495.24748 
   65000    300.50319    320.02989    281.68351   -516.23788    523.17483 
   66000    299.80646    320.63399    279.54592   -543.55966    547.00997 
   67000    299.74295    319.23894    282.62171   -569.67198    577.52916 
   68000    299.41481    317.92576     275.9838   -599.81073    607.73333 
   69000     300.7668    319.42008    280.57804   -638.27846    637.69224 
   70000    300.09767    318.77093     282.7276   -652.20804    651.46789 
   71000    300.44232    316.77463    283.28122   -685.28344    673.94904 
   72000    300.24782     322.2708    281.41822   -707.42284    704.45621 
   73000     299.4534    312.95737    280.27423   -728.12853    730.79233 
   74000    299.97082    321.72717    284.16191   -766.74515    761.23513 
   75000    299.99891    320.39303     281.5372    -796.3664    798.98251 
   76000    299.49289    317.98954    279.82893   -825.39537    819.05579 
   77000     299.1374     318.1445    280.18101    -847.0666    855.29034 
   78000    299.63651    319.91882    280.18766   -869.35854    885.15251 
   79000    299.92233    312.86274    281.98498   -900.24446    898.31964 
   80000    299.78015    315.53961    282.61645   -926.83448    916.79073 
   81000    299.94772    320.03651       281.58   -959.42791    944.01692 
   82000    300.39529    320.20336     280.9826   -989.39178    968.90404 
   83000    300.78861    319.77944    279.22445   -1010.8569    999.62796 
   84000    300.46026    316.77552    282.98658   -1040.4897    1019.5018 
   85000    300.11318     319.4326    282.23754   -1078.5601     1056.737 
   86000    300.34457    318.09375    282.82477   -1096.1565    1087.5234 
   87000    300.28424    317.24678    281.81488   -1125.5295    1108.3096 
   88000    299.18282    316.77331    282.05251   -1145.3068    1141.4537 
   89000    299.58222    316.78464     280.2841   -1171.4111    1167.0937 
   90000    299.49996    317.05146    279.39627   -1202.5824    1202.8918 
   91000    299.89552    314.91941    283.51238   -1225.5394    1229.5933 
   92000    300.13832    320.81328    282.13943   -1255.6144    1253.7244 
   93000    299.79202    318.90084    280.68575   -1294.0464     1287.938 
   94000    299.89305    317.98947    281.22223   -1325.4082    1319.0736 
   95000    299.44345    317.49147    277.96551   -1336.0949    1357.3789 
   96000    300.06019    318.68062    281.00848   -1373.8051    1377.7631 
   97000    299.19185    319.46868    280.37008   -1402.6855    1408.8003 
   98000    300.00474    325.15896    284.57886   -1429.4956    1433.3899 
   99000    299.37371    319.03004    281.81101   -1446.8661     1454.482 
  100000    299.35018     320.0019    281.37394   -1476.4184    1488.9749 
  101000    300.05395    323.71727    282.40102   -1506.7436     1507.796 
  102000    299.39644    318.35804    281.94887   -1528.1518    1538.3364 
  103000    299.62149    315.60703    284.26735    -1562.799    1562.4878 
  104000    299.35407    317.32486     281.1243   -1577.3956    1596.3553 
  105000    300.39398    324.00596    280.88435     -1625.12    1621.0735 
  106000    299.34919    322.62192    277.70634   -1638.7886    1662.3337 
  107000     300.4227    323.72281    284.11608   -1675.9733    1679.4469 
  108000    299.70479    321.23361    281.63601   -1700.0175    1710.1547 
  109000    300.16525    324.68801    280.52752   -1731.9702    1748.7019 
  110000    298.89232    321.26111    281.86375   -1751.0493    1772.8307 
  111000    299.27623     319.2331    280.31744   -1780.3625    1806.5039 
  112000    299.26263    316.84287    281.10243   -1817.0263    1834.5053 
  113000    299.87852    322.34755    281.41421   -1844.7823    1858.1843 
  114000    299.25364    314.68426    281.04451   -1859.9264    1887.8109 
  115000    298.98374    317.76672    278.89536   -1895.4037    1911.9374 
  116000    299.42572    320.66973    282.00388   -1928.2276    1941.8472 
  117000    299.94502    324.25203    282.68368   -1972.3487    1970.4669 
  118000    299.43827    318.28672    275.77343   -1998.3491     2007.205 
  119000    299.91932    321.14407    281.54192   -2022.0321    2031.8526 
  120000    300.29085     319.0734    282.23975   -2055.6412    2070.4234 
  121000    300.26879    318.93955    286.20233   -2083.3785     2089.286 
  122000    300.09432    319.85637    278.95619   -2118.5527    2117.8068 
  123000     299.8778    321.13219    282.00689   -2133.2955    2139.4988 
  124000    300.00644    317.15769    278.46256   -2158.6496    2166.7118 
  125000    299.15536    317.14627    278.66146   -2187.9566    2201.3529 
  126000    299.41271    316.48093    280.71607   -2218.4752    2215.9015 
  127000    300.28096    315.56342    284.21228   -2247.4231    2241.5983 
  128000     299.6843    316.37897    280.91716   -2278.5932    2271.6888 
  129000    299.07348    316.73148    282.89383   -2304.4002    2296.8132 
  130000     299.3577    315.32823    281.19542   -2325.9831    2322.2404 
  131000    300.16013    315.52565    278.76146   -2357.2721    2365.9458 
  132000    300.60688    318.85854    279.92405   -2389.6505    2383.4555 
  133000    299.74798    321.01583    280.69731   -2424.7595    2413.5726 
  134000    300.07484    318.28556    282.39033   -2452.6003     2438.256 
  135000    300.45215    325.02365    281.99185   -2493.7157    2468.8656 
  136000    300.45203    318.25222    285.82458    -2515.317    2497.0758 
  137000    300.42048    321.41102    285.45415   -2545.8534    2528.8645 
  138000    299.73818    316.59226    282.28734   -2562.5584    2563.2192 
  139000    300.01393    313.52528    282.91202   -2589.5361    2596.7906 
  140000     299.0437    318.73121    278.83038   -2616.9218     2628.455 
  141000    299.88782    316.32416    277.65114   -2648.7729    2655.5623 
  142000    300.12075    321.50526    279.76352   -2682.0771    2674.8009 
  143000    299.24752    313.54273    285.18145   -2697.1732     2704.684 
  144000    300.44811    321.66755     282.8174    -2733.272    2737.9069 
  145000    298.87105    316.44891    278.04474    -2753.582    2774.7409 
  145001    298.89554    316.10885    278.73032   -2752.8746    2774.4142 
Loop time of 1838.05 on 32 procs for 100000 steps with 193600 atoms

Performance: 2.350 ns/day, 10.211 hours/ns, 54.405 timesteps/s
79.2% CPU use with 32 MPI tasks x no OpenMP threads

MPI task timing breakdown:
Section |  min time  |  avg time  |  max time  |%varavg| %total
---------------------------------------------------------------
Pair    | 1065.7     | 1086       | 1111.9     |  31.1 | 59.08
Neigh   | 0          | 0          | 0          |   0.0 |  0.00
Comm    | 273.31     | 395.74     | 506.38     | 335.4 | 21.53
Output  | 0.099958   | 0.10701    | 0.11128    |   0.8 |  0.01
Modify  | 217.47     | 321.68     | 425.97     | 364.4 | 17.50
Other   |            | 34.56      |            |       |  1.88

Nlocal:    6050 ave 6093 max 6010 min
Histogram: 4 2 3 2 7 1 5 3 3 2
Nghost:    5891.97 ave 5932 max 5848 min
Histogram: 2 2 4 5 1 7 2 3 2 4
Neighs:    0 ave 0 max 0 min
Histogram: 32 0 0 0 0 0 0 0 0 0
FullNghs:  207678 ave 209307 max 206220 min
Histogram: 3 4 2 3 6 3 5 2 2 2

Total # of neighbors = 6645684
Ave neighs/atom = 34.3269
Neighbor list builds = 0
Dangerous builds = 0

# thermal conductivity calculation
# reset langevin thermostats to zero energy accumulation
reset_timestep 0
thermo		$c
thermo		500000
compute		ke all ke/atom
variable	temp atom c_ke/1.5/8.617332478e-5
fix		hot all langevin ${thi} ${thi} ${tdamp} 389516 tally yes
fix		hot all langevin 319.9225 ${thi} ${tdamp} 389516 tally yes
fix		hot all langevin 319.9225 319.9225 ${tdamp} 389516 tally yes
fix		hot all langevin 319.9225 319.9225 0.05 389516 tally yes
fix_modify	hot temp Thot
fix		cold all langevin ${tlo} ${tlo} ${tdamp} 46579 tally yes
fix		cold all langevin 280.0775 ${tlo} ${tdamp} 46579 tally yes
fix		cold all langevin 280.0775 280.0775 ${tdamp} 46579 tally yes
fix		cold all langevin 280.0775 280.0775 0.05 46579 tally yes
fix_modify	cold temp Tcold

compute		ch all chunk/atom bin/1d x lower 0.02 units reduced
fix		11 all ave/chunk $a $b $c ch v_temp file sw_${P}.langevin
fix		11 all ave/chunk 100 $b $c ch v_temp file sw_${P}.langevin
fix		11 all ave/chunk 100 5000 $c ch v_temp file sw_${P}.langevin
fix		11 all ave/chunk 100 5000 500000 ch v_temp file sw_${P}.langevin
fix		11 all ave/chunk 100 5000 500000 ch v_temp file sw_5.langevin
thermo_style	custom step temp c_Thot c_Tcold f_hot f_cold

run		${t2nve}
run		500000
Per MPI rank memory allocation (min/avg/max) = 5.118 | 5.12 | 5.121 Mbytes
Step Temp c_Thot c_Tcold f_hot f_cold 
       0    298.89554    315.77376    279.49906           -0           -0 
  500000    300.52872    323.27279    282.44602   -14009.768    13953.866 
Loop time of 9135.38 on 32 procs for 500000 steps with 193600 atoms

Performance: 2.364 ns/day, 10.150 hours/ns, 54.732 timesteps/s
79.2% CPU use with 32 MPI tasks x no OpenMP threads

MPI task timing breakdown:
Section |  min time  |  avg time  |  max time  |%varavg| %total
---------------------------------------------------------------
Pair    | 5367.9     | 5430.4     | 5528.1     |  50.9 | 59.44
Neigh   | 0          | 0          | 0          |   0.0 |  0.00
Comm    | 1375.4     | 1954.9     | 2518.4     | 758.6 | 21.40
Output  | 0.000885   | 0.0017746  | 0.001925   |   0.4 |  0.00
Modify  | 1073.4     | 1583.1     | 2095.7     | 819.1 | 17.33
Other   |            | 167.1      |            |       |  1.83

Nlocal:    6050 ave 6082 max 6020 min
Histogram: 2 3 4 4 4 4 2 3 3 3
Nghost:    5892.34 ave 5922 max 5861 min
Histogram: 4 2 3 2 4 3 5 3 4 2
Neighs:    0 ave 0 max 0 min
Histogram: 32 0 0 0 0 0 0 0 0 0
FullNghs:  207772 ave 209064 max 206695 min
Histogram: 2 4 4 5 4 3 3 3 3 1

Total # of neighbors = 6648708
Ave neighs/atom = 34.3425
Neighbor list builds = 0
Dangerous builds = 0
clear
next		P
jump		Si.in
 units       metal
#----------------------------- User Input Variables --------------------------------------
################### Geometrical Parameters ###############################
variable	P index 5 6 7 8
variable	W equal 22
# Lattice Constant
variable	LC equal 5.43
# Length
variable	L equal 50
# Width
#variable	W equal 6
# Height
variable	H equal ${W}
variable	H equal 22
################### Simulation Condition ###############################
#DT/DX=cte
variable	cte equal 1.5938
log         sw_${P}.log
log         sw_6.log
