# temperature
variable	T equal 300
#cold region temperature
#variable        tlo equal 275
variable        tlo equal ${T}-${L}*${cte}/4.0
variable        tlo equal 300-${L}*${cte}/4.0
variable        tlo equal 300-50*${cte}/4.0
variable        tlo equal 300-50*1.5938/4.0
#hot region temperature
#variable        thi equal ${cte}*${L}/2+${tlo}
variable        thi equal ${T}+${L}*${cte}/4.0
variable        thi equal 300+${L}*${cte}/4.0
variable        thi equal 300+50*${cte}/4.0
variable        thi equal 300+50*1.5938/4.0

#time step (picoseconds)
variable	dt equal 0.0005 # 0.5 femtoseconds
#number of time steps for NPT
variable	tnpt equal 5000
#number of time steps for NVT
variable	tnvt equal 40000
#number of time steps for first NVE
variable	t1nve equal 100000
#number of time steps for second NVE
variable	t2nve equal 500000

################### Variable Based on LAMMPS Documentation ######################
variable	a equal 100
variable	c equal ${t2nve}
variable	c equal 500000
variable	b equal $c/$a
variable	b equal 500000/$a
variable	b equal 500000/100
variable	tdamp equal ${dt}*100
variable	tdamp equal 0.0005*100
variable	pdamp equal ${dt}*1000
variable	pdamp equal 0.0005*1000

#----------------------------------------------------------------------------------------
# setup problem
dimension       3
boundary        p p p
atom_style      atomic
lattice 	diamond ${LC} origin 0.0 0.0 0.0 orient x 1 0 0 orient y 0 1 0 orient z 0 0 1
lattice 	diamond 5.43 origin 0.0 0.0 0.0 orient x 1 0 0 orient y 0 1 0 orient z 0 0 1
Lattice spacing in x,y,z = 5.43 5.43 5.43
region          0 block 0 $L 0 $W 0 $H units lattice side in
region          0 block 0 50 0 $W 0 $H units lattice side in
region          0 block 0 50 0 22 0 $H units lattice side in
region          0 block 0 50 0 22 0 22 units lattice side in
create_box      1 0
Created orthogonal box = (0 0 0) to (271.5 119.46 119.46)
  8 by 2 by 2 MPI processor grid
create_atoms    1 region 0
Created 193600 atoms
mass		1 28.0855
#dump		1 all xyz 1000 Si_W_${W}nm.xyz
#dump_modify	1 element Si

############################################
pair_style   sw
pair_coeff   * * Si${P}.sw Si
pair_coeff   * * Si1.sw Si
thermo		100
thermo_style custom step lx
min_style cg
minimize 0.0 1.0e-8 10000 100000
WARNING: Using 'neigh_modify every 1 delay 0 check yes' setting during minimization (../min.cpp:168)
Neighbor list info ...
  update every 1 steps, delay 0 steps, check yes
  max neighbors/atom: 2000, page size: 100000
  master list distance cutoff = 5.85081
  ghost atom cutoff = 5.85081
  binsize = 2.92541, bins = 93 41 41
  1 neighbor lists, perpetual/occasional/extra = 1 0 0
  (1) pair sw, perpetual
      attributes: full, newton on
      pair build: full/bin/atomonly
      stencil: full/bin/3d
      bin: standard
Per MPI rank memory allocation (min/avg/max) = 5.235 | 5.235 | 5.235 Mbytes
Step Lx 
       0        271.5 
       1        271.5 
Loop time of 0.427029 on 32 procs for 1 steps with 193600 atoms

79.4% CPU use with 32 MPI tasks x no OpenMP threads

Minimization stats:
  Stopping criterion = force tolerance
  Energy initial, next-to-last, final = 
        -947549.543332     -947549.543332     -947549.543332
  Force two-norm initial, final = 1.02516e-10 1.02443e-10
  Force max component initial, final = 5.99939e-13 6.01547e-13
  Final line search alpha, max atom move = 1 6.01547e-13
  Iterations, force evaluations = 1 2

MPI task timing breakdown:
Section |  min time  |  avg time  |  max time  |%varavg| %total
---------------------------------------------------------------
Pair    | 0.28421    | 0.29037    | 0.41618    |   4.2 | 68.00
Neigh   | 0          | 0          | 0          |   0.0 |  0.00
Comm    | 0.004546   | 0.068661   | 0.13852    |  23.7 | 16.08
Output  | 0          | 0          | 0          |   0.0 |  0.00
Modify  | 0          | 0          | 0          |   0.0 |  0.00
Other   |            | 0.068      |            |       | 15.92

Nlocal:    6050 ave 6050 max 6050 min
Histogram: 32 0 0 0 0 0 0 0 0 0
Nghost:    5892.5 ave 5893 max 5892 min
Histogram: 16 0 0 0 0 0 0 0 0 16
Neighs:    0 ave 0 max 0 min
Histogram: 32 0 0 0 0 0 0 0 0 0
FullNghs:  205700 ave 205700 max 205700 min
Histogram: 32 0 0 0 0 0 0 0 0 0

Total # of neighbors = 6582400
Ave neighs/atom = 34
Neighbor list builds = 0
Dangerous builds = 0
timestep     ${dt}
timestep     0.0005
velocity 	all create $T 492845
velocity 	all create 300 492845


fix 		NPT all npt temp $T $T ${tdamp} iso 0.0 0.0 ${pdamp}
fix 		NPT all npt temp 300 $T ${tdamp} iso 0.0 0.0 ${pdamp}
fix 		NPT all npt temp 300 300 ${tdamp} iso 0.0 0.0 ${pdamp}
fix 		NPT all npt temp 300 300 0.05 iso 0.0 0.0 ${pdamp}
fix 		NPT all npt temp 300 300 0.05 iso 0.0 0.0 0.5
thermo		100
thermo_style custom step lx press
run		${tnpt}
run		5000
Per MPI rank memory allocation (min/avg/max) = 4.11 | 4.11 | 4.11 Mbytes
Step Lx Press 
       1        271.5    27367.675 
     100    273.56025    2971.5283 
     200    273.88003   -276.65382 
     300     273.8454   -9.1261218 
     400    273.86992    41.758703 
     500    273.87671     58.84708 
     600    273.89689   -71.389699 
     700    273.90117    138.14972 
     800    273.92096  -0.68323918 
     900    273.93633   -19.420176 
    1000    273.95082   -11.980968 
    1100    273.96249    12.525075 
    1200     273.9756    25.876076 
    1300    273.98792   -6.1262958 
    1400    273.99614    14.216812 
    1500    274.00169    27.325955 
    1600    274.00556   -31.879618 
    1700    274.00324   -25.288247 
    1800    273.99542    18.574745 
    1900      273.995    7.0899447 
    2000    273.99545    2.8294335 
    2100    274.00129   -23.346482 
    2200    274.00171    10.664655 
    2300    274.00308   -4.8699455 
    2400    273.99759    -27.03756 
    2500     273.9964    19.003932 
    2600     273.9967    19.440057 
    2700    273.99677    3.2148723 
    2800    274.00758   -47.800391 
    2900    273.99144    69.753424 
    3000    274.01123   -118.87843 
    3100    273.98604     148.6883 
    3200    274.00208   -101.04042 
    3300    274.00575   -24.545009 
    3400    273.97865    193.12126 
    3500     274.0267   -267.00961 
    3600    273.98194     206.4162 
    3700    274.00226   -43.056055 
    3800    274.00204   -56.807544 
    3900    273.99264    62.489125 
    4000    274.00018   -14.233106 
    4100    274.00331   -38.114845 
    4200    273.99714    52.977127 
    4300    273.99923   -16.469902 
    4400    274.00172   -35.214924 
    4500    273.99114     65.97422 
    4600    274.00476   -55.810609 
    4700    273.99628    16.250037 
    4800    274.00154    4.4289868 
    4900    273.99756    18.033798 
    5000    274.00501   -61.426629 
    5001    274.00499   -61.936553 
Loop time of 189.385 on 32 procs for 5000 steps with 193600 atoms

Performance: 1.141 ns/day, 21.043 hours/ns, 26.401 timesteps/s
87.4% CPU use with 32 MPI tasks x no OpenMP threads

MPI task timing breakdown:
Section |  min time  |  avg time  |  max time  |%varavg| %total
---------------------------------------------------------------
Pair    | 148.89     | 150.71     | 154.4      |   9.7 | 79.58
Neigh   | 0.037889   | 0.040414   | 0.053988   |   1.7 |  0.02
Comm    | 12.325     | 22.112     | 28.496     |  87.8 | 11.68
Output  | 0.027305   | 0.032061   | 0.03461    |   1.1 |  0.02
Modify  | 8.9206     | 15.52      | 24.251     | 107.8 |  8.19
Other   |            | 0.9712     |            |       |  0.51

Nlocal:    6050 ave 6094 max 6014 min
Histogram: 2 5 3 2 7 4 4 3 0 2
Nghost:    5892.5 ave 5929 max 5849 min
Histogram: 2 0 3 4 4 7 2 3 4 3
Neighs:    0 ave 0 max 0 min
Histogram: 32 0 0 0 0 0 0 0 0 0
FullNghs:  206620 ave 208183 max 205302 min
Histogram: 1 6 3 2 7 3 5 3 0 2

Total # of neighbors = 6611834
Ave neighs/atom = 34.152
Neighbor list builds = 3
Dangerous builds = 0
unfix		NPT
variable	length equal lx/${LC}
variable	length equal lx/5.43

################### Geometrical Parameters After Relaxation ###############################
# Thermostat_width
variable	TW equal ${length}/40
variable	TW equal 50.4613246260585/40
# Hot_Start
variable	hs equal ${length}/4-${TW}
variable	hs equal 50.4613246260585/4-${TW}
variable	hs equal 50.4613246260585/4-1.26153311565146
# Hot_End
variable	he equal ${length}/4+${TW}
variable	he equal 50.4613246260585/4+${TW}
variable	he equal 50.4613246260585/4+1.26153311565146
# Cold_Start
variable	cs equal 3*${length}/4-${TW}
variable	cs equal 3*50.4613246260585/4-${TW}
variable	cs equal 3*50.4613246260585/4-1.26153311565146
# Cold_End
variable	ce equal 3*${length}/4+${TW}
variable	ce equal 3*50.4613246260585/4+${TW}
variable	ce equal 3*50.4613246260585/4+1.26153311565146
###########################################################################################

################### Defining Thermostat ###################################################
region 		hot block ${hs} ${he} EDGE EDGE EDGE EDGE
region 		hot block 11.3537980408632 ${he} EDGE EDGE EDGE EDGE
region 		hot block 11.3537980408632 13.8768642721661 EDGE EDGE EDGE EDGE
region 		cold block ${cs} ${ce} EDGE EDGE EDGE EDGE
region 		cold block 36.5844603538924 ${ce} EDGE EDGE EDGE EDGE
region 		cold block 36.5844603538924 39.1075265851953 EDGE EDGE EDGE EDGE
group		test region cold
9573 atoms in group test
group		test1 region hot
9567 atoms in group test1
compute		Thot all temp/region hot
compute         Tcold all temp/region cold
###########################################################################################

fix		NVT all nvt temp $T $T ${tdamp}
fix		NVT all nvt temp 300 $T ${tdamp}
fix		NVT all nvt temp 300 300 ${tdamp}
fix		NVT all nvt temp 300 300 0.05
thermo		1000
thermo_style	custom step temp
run		${tnvt}
run		40000
Per MPI rank memory allocation (min/avg/max) = 4.118 | 4.119 | 4.121 Mbytes
Step Temp 
    5001    301.21549 
    6000    298.36007 
    7000    297.43474 
    8000    299.86477 
    9000    300.36942 
   10000    299.30501 
   11000    302.31922 
   12000     302.2732 
   13000    298.90878 
   14000    300.43956 
   15000    298.32814 
   16000    299.49291 
   17000    301.16746 
   18000    299.95387 
   19000    302.03775 
   20000    300.80854 
   21000     299.1548 
   22000    300.36633 
   23000     300.7368 
   24000    299.84264 
   25000    299.91836 
   26000    299.88184 
   27000    299.59776 
   28000    299.52233 
   29000    300.47955 
   30000    299.35856 
   31000    299.33332 
   32000     302.0705 
   33000      300.599 
   34000    299.50034 
   35000    299.61375 
   36000    301.03146 
   37000     301.1022 
   38000    298.93402 
   39000    299.91876 
   40000    300.08318 
   41000    298.91595 
   42000    301.07662 
   43000     299.2259 
   44000    299.80163 
   45000    299.69273 
   45001       299.69 
Loop time of 1502.91 on 32 procs for 40000 steps with 193600 atoms

Performance: 1.150 ns/day, 20.874 hours/ns, 26.615 timesteps/s
87.1% CPU use with 32 MPI tasks x no OpenMP threads

MPI task timing breakdown:
Section |  min time  |  avg time  |  max time  |%varavg| %total
---------------------------------------------------------------
Pair    | 1186.2     | 1198.6     | 1213.4     |  19.9 | 79.75
Neigh   | 0          | 0          | 0          |   0.0 |  0.00
Comm    | 145.91     | 196.2      | 237.93     | 190.9 | 13.05
Output  | 0.022828   | 0.025621   | 0.029966   |   1.2 |  0.00
Modify  | 46.269     | 94.411     | 139.97     | 304.1 |  6.28
Other   |            | 13.68      |            |       |  0.91

Nlocal:    6050 ave 6117 max 5993 min
Histogram: 1 1 6 4 7 5 4 3 0 1
Nghost:    5892.5 ave 5949 max 5826 min
Histogram: 1 0 2 5 5 7 4 6 1 1
Neighs:    0 ave 0 max 0 min
Histogram: 32 0 0 0 0 0 0 0 0 0
FullNghs:  209601 ave 212306 max 207486 min
Histogram: 1 1 7 6 5 4 6 1 0 1

Total # of neighbors = 6707242
Ave neighs/atom = 34.6448
Neighbor list builds = 0
Dangerous builds = 0
velocity	all scale $T
velocity	all scale 300
unfix		NVT

fix		NVE all nve
fix		hot all langevin ${thi} ${thi} ${tdamp} 389516 tally yes
fix		hot all langevin 319.9225 ${thi} ${tdamp} 389516 tally yes
fix		hot all langevin 319.9225 319.9225 ${tdamp} 389516 tally yes
fix		hot all langevin 319.9225 319.9225 0.05 389516 tally yes
fix_modify	hot temp Thot
fix		cold all langevin ${tlo} ${tlo} ${tdamp} 46579 tally yes
fix		cold all langevin 280.0775 ${tlo} ${tdamp} 46579 tally yes
fix		cold all langevin 280.0775 280.0775 ${tdamp} 46579 tally yes
fix		cold all langevin 280.0775 280.0775 0.05 46579 tally yes
fix_modify	cold temp Tcold

thermo_style	custom step temp c_Thot c_Tcold f_hot f_cold
run		${t1nve}
run		100000
Per MPI rank memory allocation (min/avg/max) = 4.868 | 4.869 | 4.871 Mbytes
Step Temp c_Thot c_Tcold f_hot f_cold 
   45001          300    300.57508    302.57707           -0           -0 
   46000    300.62594    319.54973    278.98463   -72.239776    90.506164 
   47000     300.3933    320.80867    279.50093   -101.30975    112.96511 
   48000    300.56039    316.61682    278.43923    -127.2579    138.76647 
   49000    300.02621     319.9416     279.0423   -148.97089    160.62287 
   50000    299.50255    321.18001    282.42309   -164.39811    177.36464 
   51000    299.89403    319.31733    282.53953   -188.22644    207.44417 
   52000    300.42654    320.13559    283.53813   -224.27734    223.38087 
   53000    299.72212    317.59706    284.77987   -245.97351    270.15864 
   54000    299.71008    316.10171    280.79407   -286.61157    303.16743 
   55000     300.3195    317.73902    284.33764   -326.06981    327.49259 
   56000    299.12411    317.86375    281.87773   -354.72877    371.29899 
   57000     300.1469    317.47159    282.59778   -394.57709    398.69083 
   58000    300.70749    324.07204    280.74346   -440.75267    440.59633 
   59000    299.81757    318.15184    280.21691   -474.70761    480.24754 
   60000    300.08445    318.97743    283.76345   -511.48342    515.53463 
   61000    300.32983    321.26706    279.00686   -550.90128     554.2191 
   62000    299.85615    318.48474    282.75572    -583.6949    597.50547 
   63000    300.26919    323.54491    277.23328   -631.22299    648.21527 
   64000    299.95834     317.7296    279.88475   -670.00215    688.11504 
   65000    299.73027     317.6218    285.09107   -713.49151    724.80163 
   66000    300.00293      324.384    282.70893   -757.90735    759.04363 
   67000    300.55821    320.33692    285.27771   -797.85794    809.51082 
   68000    300.30435    313.55485    280.68387   -842.51869    850.51652 
   69000    300.23808    313.57367    283.68912   -862.29506    880.82393 
   70000    300.54679    315.48707    276.92271   -918.08006     932.4871 
   71000    300.22788    317.69715    281.05011   -967.73708    966.06679 
   72000    301.33111    319.31072    285.09882   -1001.1169    997.12779 
   73000    300.78418    318.17415    278.93221   -1047.5109    1040.6074 
   74000    300.49382    317.84337    285.54977   -1089.8477    1091.7698 
   75000    300.30708    314.22859    284.30748   -1122.4256     1123.851 
   76000    300.04251    314.86701    280.15211   -1168.7873    1175.0464 
   77000    300.20642    320.92316     282.4301   -1200.8914    1208.8722 
   78000    300.67621    315.45715    283.09964   -1249.9926    1248.3423 
   79000    300.99683    321.13058    281.65306   -1306.7891    1287.1317 
   80000    300.46006    318.42052    283.61834   -1333.4696    1325.6768 
   81000    300.75102    316.60916    281.21632   -1364.5375    1371.6788 
   82000     300.0388    319.35072    279.65243   -1406.3676    1410.2079 
   83000    300.49851    319.52465    284.82224   -1449.5082    1447.9348 
   84000    300.56559    324.53587    283.17522   -1492.4761    1486.2369 
   85000    300.74994    319.39392    286.30948   -1527.9009    1535.3749 
   86000     299.3941    314.40452    281.69726   -1557.4752    1586.7754 
   87000    299.27023    316.68706    281.24552   -1596.3265    1628.4664 
   88000    300.09257    317.45706    280.22863   -1644.7267    1662.7827 
   89000    300.16907    326.72712    281.68606   -1693.6318    1703.1791 
   90000    299.85617    320.41122    281.61822    -1725.427    1752.6718 
   91000    299.30102    314.92504    285.13051   -1758.0314    1782.5959 
   92000    299.43298    317.60831    282.90965    -1789.481    1826.4424 
   93000    299.90421    321.04523     284.6346   -1832.6202    1858.0644 
   94000    299.88987    315.07962    282.96308   -1876.6177    1889.5082 
   95000     299.6681    314.25175    281.95261   -1912.4742    1942.5457 
   96000    300.20323    320.68228    281.07288   -1962.2746    1982.9262 
   97000    299.86232    321.41431    281.68114   -2004.1138    2032.7732 
   98000    299.77781    317.71785    284.46506   -2040.4244    2070.0099 
   99000    300.50453    320.39676    283.94967   -2079.1021    2104.1936 
  100000    299.72305    316.18149    279.55283   -2135.6033    2146.6133 
  101000    299.54091    317.13425    279.42508   -2180.6512    2199.3583 
  102000    299.28524    312.32595    283.76322   -2205.3616    2242.3932 
  103000    300.64227    324.25227    280.24743     -2265.56    2280.5261 
  104000    299.77271    317.43232    280.31112   -2313.2969    2311.8463 
  105000    299.78411    314.53807    281.70791   -2339.9642    2344.8728 
  106000    300.15662    319.30979    283.79569   -2384.1451     2387.757 
  107000    300.23446    313.24811    283.49854   -2423.8998    2436.3402 
  108000    300.02662    319.98958    280.29937   -2476.6299    2480.7968 
  109000     300.2843     318.8976    279.33939    -2512.241    2526.0382 
  110000    299.99689    314.90872    284.11312   -2543.7586    2559.3777 
  111000    300.25077    320.06552    284.65565   -2596.1535    2598.0793 
  112000    300.09073    322.21815    279.87685   -2640.9948    2653.1339 
  113000    299.69662    318.90759    280.91558   -2670.5801    2684.9026 
  114000    299.78142    314.21466    280.02019   -2708.5959    2728.5257 
  115000    299.86067    316.64872     284.7878   -2735.8461    2759.6817 
  116000    299.99519    318.47083    279.84458   -2784.9734    2806.7971 
  117000    300.23491    316.53337    278.78486   -2818.8371    2837.2369 
  118000    300.80136    317.00871    282.27166   -2856.5665    2878.4458 
  119000    299.35211    315.35093    281.04683   -2901.8847    2916.6011 
  120000     299.9201    323.84696    279.10093   -2956.9135     2967.442 
  121000     300.0706    319.61389    280.71893   -2988.2519    3001.8698 
  122000    300.31165    318.15594    282.37232   -3029.3062    3033.9198 
  123000    300.42989    314.92487     285.8537   -3055.4342    3064.5154 
  124000    300.53815    320.19049    280.83976   -3093.8836    3108.0105 
  125000    299.86236    317.07895    276.82165   -3136.3112    3138.3056 
  126000     299.7602    317.10362    284.84257   -3179.8469    3173.1441 
  127000    300.21452    315.43358    281.87142   -3208.2436    3221.9801 
  128000    300.55936    319.31418    282.68561   -3255.5523    3262.9567 
  129000    300.04304    318.74664    278.07748   -3302.0105    3303.2975 
  130000    300.00008    318.94595     282.1944   -3338.2033    3339.6673 
  131000    300.94691    325.87171    282.23866   -3386.3144    3363.6453 
  132000    299.80494    319.10045    279.90174   -3426.8132    3426.5721 
  133000    301.35739    316.02379    283.28645   -3463.3309    3452.6049 
  134000    300.07913    313.28406    279.68682   -3503.6165    3503.2101 
  135000    300.48771    324.04089    281.84203   -3549.7671    3541.9761 
  136000    299.11654    316.66735    284.97332   -3581.0391    3592.8813 
  137000    299.16127    319.87699    282.37996   -3613.0269    3629.3033 
  138000    299.22736     322.1013     278.6723   -3660.9554     3687.825 
  139000    299.35869    317.99368    279.40649   -3701.1248    3725.4828 
  140000    300.22039     318.6025    283.84541   -3728.9529    3759.5319 
  141000    299.24083    317.44184    279.23828   -3763.8103     3803.255 
  142000    299.94415    317.83163    282.41657   -3803.1049    3833.8099 
  143000    299.62401    316.68938    281.99784   -3857.8175     3886.162 
  144000    299.52998    317.52943    280.69475   -3909.7391    3929.0387 
  145000    299.87379    313.95957    283.72205   -3945.8717    3966.4132 
  145001    299.86098    313.87665    283.39039   -3945.7994    3966.7071 
Loop time of 3842.83 on 32 procs for 100000 steps with 193600 atoms

Performance: 1.124 ns/day, 21.349 hours/ns, 26.022 timesteps/s
87.7% CPU use with 32 MPI tasks x no OpenMP threads

MPI task timing breakdown:
Section |  min time  |  avg time  |  max time  |%varavg| %total
---------------------------------------------------------------
Pair    | 2941       | 2996.7     | 3042.1     |  37.3 | 77.98
Neigh   | 0          | 0          | 0          |   0.0 |  0.00
Comm    | 337.74     | 469.63     | 571.78     | 341.5 | 12.22
Output  | 0.098361   | 0.10735    | 0.11048    |   0.9 |  0.00
Modify  | 229.53     | 342.93     | 452.92     | 381.2 |  8.92
Other   |            | 33.48      |            |       |  0.87

Nlocal:    6050 ave 6111 max 5996 min
Histogram: 3 1 6 3 1 8 4 2 3 1
Nghost:    5892.5 ave 5947 max 5832 min
Histogram: 1 2 3 4 8 1 3 6 1 3
Neighs:    0 ave 0 max 0 min
Histogram: 32 0 0 0 0 0 0 0 0 0
FullNghs:  209648 ave 211888 max 207439 min
Histogram: 3 0 5 5 1 7 5 2 3 1

Total # of neighbors = 6708720
Ave neighs/atom = 34.6525
Neighbor list builds = 0
Dangerous builds = 0

# thermal conductivity calculation
# reset langevin thermostats to zero energy accumulation
reset_timestep 0
thermo		$c
thermo		500000
compute		ke all ke/atom
variable	temp atom c_ke/1.5/8.617332478e-5
fix		hot all langevin ${thi} ${thi} ${tdamp} 389516 tally yes
fix		hot all langevin 319.9225 ${thi} ${tdamp} 389516 tally yes
fix		hot all langevin 319.9225 319.9225 ${tdamp} 389516 tally yes
fix		hot all langevin 319.9225 319.9225 0.05 389516 tally yes
fix_modify	hot temp Thot
fix		cold all langevin ${tlo} ${tlo} ${tdamp} 46579 tally yes
fix		cold all langevin 280.0775 ${tlo} ${tdamp} 46579 tally yes
fix		cold all langevin 280.0775 280.0775 ${tdamp} 46579 tally yes
fix		cold all langevin 280.0775 280.0775 0.05 46579 tally yes
fix_modify	cold temp Tcold

compute		ch all chunk/atom bin/1d x lower 0.02 units reduced
fix		11 all ave/chunk $a $b $c ch v_temp file sw_${P}.langevin
fix		11 all ave/chunk 100 $b $c ch v_temp file sw_${P}.langevin
fix		11 all ave/chunk 100 5000 $c ch v_temp file sw_${P}.langevin
fix		11 all ave/chunk 100 5000 500000 ch v_temp file sw_${P}.langevin
fix		11 all ave/chunk 100 5000 500000 ch v_temp file sw_1.langevin
thermo_style	custom step temp c_Thot c_Tcold f_hot f_cold

run		${t2nve}
run		500000
Per MPI rank memory allocation (min/avg/max) = 5.118 | 5.12 | 5.121 Mbytes
Step Temp c_Thot c_Tcold f_hot f_cold 
       0    299.86098    313.56017    283.17933           -0           -0 
  500000    300.40793    322.60756    278.71382   -20623.886    20604.848 
Loop time of 19152.5 on 32 procs for 500000 steps with 193600 atoms

Performance: 1.128 ns/day, 21.281 hours/ns, 26.106 timesteps/s
87.7% CPU use with 32 MPI tasks x no OpenMP threads

MPI task timing breakdown:
Section |  min time  |  avg time  |  max time  |%varavg| %total
---------------------------------------------------------------
Pair    | 14831      | 14949      | 15199      |  72.5 | 78.05
Neigh   | 0          | 0          | 0          |   0.0 |  0.00
Comm    | 1701.1     | 2309.2     | 2962.4     | 738.7 | 12.06
Output  | 0.000864   | 0.0022168  | 0.002578   |   0.9 |  0.00
Modify  | 1157.9     | 1733.8     | 2255.5     | 828.7 |  9.05
Other   |            | 160        |            |       |  0.84

Nlocal:    6050 ave 6108 max 6020 min
Histogram: 6 4 5 6 3 4 2 0 1 1
Nghost:    5892.5 ave 5922 max 5834 min
Histogram: 1 1 0 2 4 2 6 5 5 6
Neighs:    0 ave 0 max 0 min
Histogram: 32 0 0 0 0 0 0 0 0 0
FullNghs:  209622 ave 211535 max 208507 min
Histogram: 6 3 6 5 2 4 3 1 0 2

Total # of neighbors = 6707908
Ave neighs/atom = 34.6483
Neighbor list builds = 0
Dangerous builds = 0
clear
next		P
jump		Si.in
 units       metal
#----------------------------- User Input Variables --------------------------------------
################### Geometrical Parameters ###############################
variable	P index 1 2 3 4
variable	W equal 22
# Lattice Constant
variable	LC equal 5.43
# Length
variable	L equal 50
# Width
#variable	W equal 6
# Height
variable	H equal ${W}
variable	H equal 22
################### Simulation Condition ###############################
#DT/DX=cte
variable	cte equal 1.5938
log         sw_${P}.log
log         sw_2.log
