# temperature
variable	T equal 300
#cold region temperature
#variable        tlo equal 275
variable        tlo equal ${T}-${L}*${cte}/4.0
variable        tlo equal 300-${L}*${cte}/4.0
variable        tlo equal 300-50*${cte}/4.0
variable        tlo equal 300-50*1.5938/4.0
#hot region temperature
#variable        thi equal ${cte}*${L}/2+${tlo}
variable        thi equal ${T}+${L}*${cte}/4.0
variable        thi equal 300+${L}*${cte}/4.0
variable        thi equal 300+50*${cte}/4.0
variable        thi equal 300+50*1.5938/4.0

#time step (picoseconds)
variable	dt equal 0.0005 # 0.5 femtoseconds
#number of time steps for NPT
variable	tnpt equal 5000
#number of time steps for NVT
variable	tnvt equal 40000
#number of time steps for first NVE
variable	t1nve equal 100000
#number of time steps for second NVE
variable	t2nve equal 500000

################### Variable Based on LAMMPS Documentation ######################
variable	a equal 100
variable	c equal ${t2nve}
variable	c equal 500000
variable	b equal $c/$a
variable	b equal 500000/$a
variable	b equal 500000/100
variable	tdamp equal ${dt}*100
variable	tdamp equal 0.0005*100
variable	pdamp equal ${dt}*1000
variable	pdamp equal 0.0005*1000

#----------------------------------------------------------------------------------------
# setup problem
dimension       3
boundary        p p p
atom_style      atomic
lattice 	diamond ${LC} origin 0.0 0.0 0.0 orient x 1 0 0 orient y 0 1 0 orient z 0 0 1
lattice 	diamond 5.43 origin 0.0 0.0 0.0 orient x 1 0 0 orient y 0 1 0 orient z 0 0 1
Lattice spacing in x,y,z = 5.43 5.43 5.43
region          0 block 0 $L 0 $W 0 $H units lattice side in
region          0 block 0 50 0 $W 0 $H units lattice side in
region          0 block 0 50 0 22 0 $H units lattice side in
region          0 block 0 50 0 22 0 22 units lattice side in
create_box      1 0
Created orthogonal box = (0 0 0) to (271.5 119.46 119.46)
  8 by 2 by 2 MPI processor grid
create_atoms    1 region 0
Created 193600 atoms
mass		1 28.0855
#dump		1 all xyz 1000 Si_W_${W}nm.xyz
#dump_modify	1 element Si

############################################
pair_style   sw
pair_coeff   * * Si${P}.sw Si
pair_coeff   * * Si19.sw Si
thermo		100
thermo_style custom step lx
min_style cg
minimize 0.0 1.0e-8 10000 100000
WARNING: Using 'neigh_modify every 1 delay 0 check yes' setting during minimization (../min.cpp:168)
Neighbor list info ...
  update every 1 steps, delay 0 steps, check yes
  max neighbors/atom: 2000, page size: 100000
  master list distance cutoff = 5.63411
  ghost atom cutoff = 5.63411
  binsize = 2.81706, bins = 97 43 43
  1 neighbor lists, perpetual/occasional/extra = 1 0 0
  (1) pair sw, perpetual
      attributes: full, newton on
      pair build: full/bin/atomonly
      stencil: full/bin/3d
      bin: standard
Per MPI rank memory allocation (min/avg/max) = 5.239 | 5.239 | 5.239 Mbytes
Step Lx 
       0        271.5 
       1        271.5 
Loop time of 0.0417051 on 32 procs for 1 steps with 193600 atoms

77.8% CPU use with 32 MPI tasks x no OpenMP threads

Minimization stats:
  Stopping criterion = force tolerance
  Energy initial, next-to-last, final = 
         -765153.84813      -765153.84813      -765153.84813
  Force two-norm initial, final = 8.54869e-11 8.54262e-11
  Force max component initial, final = 4.95017e-13 4.97768e-13
  Final line search alpha, max atom move = 1 4.97768e-13
  Iterations, force evaluations = 1 2

MPI task timing breakdown:
Section |  min time  |  avg time  |  max time  |%varavg| %total
---------------------------------------------------------------
Pair    | 0.024401   | 0.02467    | 0.025172   |   0.1 | 59.15
Neigh   | 0          | 0          | 0          |   0.0 |  0.00
Comm    | 0.006831   | 0.010079   | 0.013409   |   2.0 | 24.17
Output  | 0          | 0          | 0          |   0.0 |  0.00
Modify  | 0          | 0          | 0          |   0.0 |  0.00
Other   |            | 0.006956   |            |       | 16.68

Nlocal:    6050 ave 6050 max 6050 min
Histogram: 32 0 0 0 0 0 0 0 0 0
Nghost:    5892.5 ave 5893 max 5892 min
Histogram: 16 0 0 0 0 0 0 0 0 16
Neighs:    0 ave 0 max 0 min
Histogram: 32 0 0 0 0 0 0 0 0 0
FullNghs:  205700 ave 205700 max 205700 min
Histogram: 32 0 0 0 0 0 0 0 0 0

Total # of neighbors = 6582400
Ave neighs/atom = 34
Neighbor list builds = 0
Dangerous builds = 0
timestep     ${dt}
timestep     0.0005
velocity 	all create $T 492845
velocity 	all create 300 492845


fix 		NPT all npt temp $T $T ${tdamp} iso 0.0 0.0 ${pdamp}
fix 		NPT all npt temp 300 $T ${tdamp} iso 0.0 0.0 ${pdamp}
fix 		NPT all npt temp 300 300 ${tdamp} iso 0.0 0.0 ${pdamp}
fix 		NPT all npt temp 300 300 0.05 iso 0.0 0.0 ${pdamp}
fix 		NPT all npt temp 300 300 0.05 iso 0.0 0.0 0.5
thermo		100
thermo_style custom step lx press
run		${tnpt}
run		5000
Per MPI rank memory allocation (min/avg/max) = 4.114 | 4.114 | 4.114 Mbytes
Step Lx Press 
       1        271.5   -65571.779 
     100    267.90833   -25909.926 
     200    266.32608    -5001.375 
     300    265.90623    -373.3749 
     400    265.91566    89.486331 
     500    265.92739    170.26434 
     600    265.93132   -107.91742 
     700    265.94412    23.222372 
     800    265.95529    42.015012 
     900    265.96626    3.8189207 
    1000    265.96789    44.106173 
    1100    265.98913   -16.344853 
    1200    265.99261    23.109564 
    1300    265.99545    23.355068 
    1400    266.01114    -36.56987 
    1500    266.00998    -43.87221 
    1600    266.00613    59.993044 
    1700    266.00779   -16.211292 
    1800    266.00744   -77.653888 
    1900    265.99837    103.90128 
    2000     266.0078   -38.206929 
    2100    266.00839   -25.124029 
    2200    266.00574    43.771617 
    2300    266.00866   -9.7088079 
    2400    266.00524    -8.186388 
    2500    266.00385   -7.6136524 
    2600    266.00505    15.480657 
    2700     266.0077   -16.995855 
    2800    266.00703    4.8897581 
    2900    266.00821   -15.144584 
    3000    266.00296  -0.20551787 
    3100    266.00454    32.759626 
    3200    266.00959   -40.361693 
    3300    266.00242    5.9501432 
    3400    266.00539    29.402496 
    3500    266.01103   -63.385293 
    3600    265.99861    54.409526 
    3700    266.01453   -33.029971 
    3800    265.99585     48.90151 
    3900    266.01611   -68.134088 
    4000    265.99521    72.626447 
    4100    266.01237    -30.41368 
    4200    266.00692   -36.751637 
    4300     266.0012    69.857702 
    4400    266.01069   -60.667889 
    4500    266.00256    15.194085 
    4600     266.0052     16.59038 
    4700    266.00801   -30.728127 
    4800    266.00437    20.929949 
    4900    266.00778   -11.702038 
    5000    266.00234     19.93446 
    5001    266.00233      20.8006 
Loop time of 90.9653 on 32 procs for 5000 steps with 193600 atoms

Performance: 2.375 ns/day, 10.107 hours/ns, 54.966 timesteps/s
78.4% CPU use with 32 MPI tasks x no OpenMP threads

MPI task timing breakdown:
Section |  min time  |  avg time  |  max time  |%varavg| %total
---------------------------------------------------------------
Pair    | 53.393     | 54.323     | 58.727     |  12.6 | 59.72
Neigh   | 0.081525   | 0.085563   | 0.11123    |   1.6 |  0.09
Comm    | 11.905     | 20.831     | 26.467     |  87.1 | 22.90
Output  | 0.027368   | 0.030852   | 0.034117   |   1.2 |  0.03
Modify  | 9.1593     | 14.548     | 23.065     | 101.9 | 15.99
Other   |            | 1.147      |            |       |  1.26

Nlocal:    6050 ave 6098 max 5994 min
Histogram: 1 0 4 4 2 8 7 5 0 1
Nghost:    5892.5 ave 5948 max 5844 min
Histogram: 1 0 5 7 8 2 3 5 0 1
Neighs:    0 ave 0 max 0 min
Histogram: 32 0 0 0 0 0 0 0 0 0
FullNghs:  206430 ave 208011 max 204527 min
Histogram: 1 0 4 4 2 8 4 6 2 1

Total # of neighbors = 6605760
Ave neighs/atom = 34.1207
Neighbor list builds = 7
Dangerous builds = 0
unfix		NPT
variable	length equal lx/${LC}
variable	length equal lx/5.43

################### Geometrical Parameters After Relaxation ###############################
# Thermostat_width
variable	TW equal ${length}/40
variable	TW equal 48.9875369360843/40
# Hot_Start
variable	hs equal ${length}/4-${TW}
variable	hs equal 48.9875369360843/4-${TW}
variable	hs equal 48.9875369360843/4-1.22468842340211
# Hot_End
variable	he equal ${length}/4+${TW}
variable	he equal 48.9875369360843/4+${TW}
variable	he equal 48.9875369360843/4+1.22468842340211
# Cold_Start
variable	cs equal 3*${length}/4-${TW}
variable	cs equal 3*48.9875369360843/4-${TW}
variable	cs equal 3*48.9875369360843/4-1.22468842340211
# Cold_End
variable	ce equal 3*${length}/4+${TW}
variable	ce equal 3*48.9875369360843/4+${TW}
variable	ce equal 3*48.9875369360843/4+1.22468842340211
###########################################################################################

################### Defining Thermostat ###################################################
region 		hot block ${hs} ${he} EDGE EDGE EDGE EDGE
region 		hot block 11.022195810619 ${he} EDGE EDGE EDGE EDGE
region 		hot block 11.022195810619 13.4715726574232 EDGE EDGE EDGE EDGE
region 		cold block ${cs} ${ce} EDGE EDGE EDGE EDGE
region 		cold block 35.5159642786611 ${ce} EDGE EDGE EDGE EDGE
region 		cold block 35.5159642786611 37.9653411254653 EDGE EDGE EDGE EDGE
group		test region cold
9550 atoms in group test
group		test1 region hot
9577 atoms in group test1
compute		Thot all temp/region hot
compute         Tcold all temp/region cold
###########################################################################################

fix		NVT all nvt temp $T $T ${tdamp}
fix		NVT all nvt temp 300 $T ${tdamp}
fix		NVT all nvt temp 300 300 ${tdamp}
fix		NVT all nvt temp 300 300 0.05
thermo		1000
thermo_style	custom step temp
run		${tnvt}
run		40000
Per MPI rank memory allocation (min/avg/max) = 4.118 | 4.12 | 4.121 Mbytes
Step Temp 
    5001    296.97365 
    6000    302.27037 
    7000    300.30035 
    8000    298.71304 
    9000    300.52077 
   10000    298.11444 
   11000    299.16752 
   12000    299.45848 
   13000    299.11793 
   14000    299.28275 
   15000    301.74112 
   16000    299.08715 
   17000    299.27776 
   18000    299.34822 
   19000    298.71081 
   20000    298.81938 
   21000    299.83593 
   22000     300.5194 
   23000    300.76534 
   24000    299.80088 
   25000    299.69519 
   26000    300.13839 
   27000    299.33526 
   28000    299.62389 
   29000    299.91361 
   30000    300.36869 
   31000    299.39935 
   32000    299.11433 
   33000    300.18756 
   34000    299.09333 
   35000    300.83409 
   36000    300.10221 
   37000    301.79852 
   38000    300.79956 
   39000    299.47249 
   40000    299.53728 
   41000    300.07308 
   42000    301.80987 
   43000    300.43668 
   44000    300.94035 
   45000    299.17828 
   45001     299.1561 
Loop time of 699.213 on 32 procs for 40000 steps with 193600 atoms

Performance: 2.471 ns/day, 9.711 hours/ns, 57.207 timesteps/s
79.7% CPU use with 32 MPI tasks x no OpenMP threads

MPI task timing breakdown:
Section |  min time  |  avg time  |  max time  |%varavg| %total
---------------------------------------------------------------
Pair    | 433.86     | 439.64     | 444.8      |  13.9 | 62.88
Neigh   | 0          | 0          | 0          |   0.0 |  0.00
Comm    | 113.07     | 161.11     | 207.22     | 220.9 | 23.04
Output  | 0.022495   | 0.024447   | 0.028958   |   1.2 |  0.00
Modify  | 36.963     | 83.605     | 127.42     | 302.5 | 11.96
Other   |            | 14.83      |            |       |  2.12

Nlocal:    6050 ave 6095 max 6005 min
Histogram: 3 4 2 3 3 2 6 4 4 1
Nghost:    5892.5 ave 5938 max 5847 min
Histogram: 1 4 3 7 2 3 3 2 4 3
Neighs:    0 ave 0 max 0 min
Histogram: 32 0 0 0 0 0 0 0 0 0
FullNghs:  207861 ave 209345 max 206220 min
Histogram: 2 5 1 4 2 3 5 5 2 3

Total # of neighbors = 6651538
Ave neighs/atom = 34.3571
Neighbor list builds = 0
Dangerous builds = 0
velocity	all scale $T
velocity	all scale 300
unfix		NVT

fix		NVE all nve
fix		hot all langevin ${thi} ${thi} ${tdamp} 389516 tally yes
fix		hot all langevin 319.9225 ${thi} ${tdamp} 389516 tally yes
fix		hot all langevin 319.9225 319.9225 ${tdamp} 389516 tally yes
fix		hot all langevin 319.9225 319.9225 0.05 389516 tally yes
fix_modify	hot temp Thot
fix		cold all langevin ${tlo} ${tlo} ${tdamp} 46579 tally yes
fix		cold all langevin 280.0775 ${tlo} ${tdamp} 46579 tally yes
fix		cold all langevin 280.0775 280.0775 ${tdamp} 46579 tally yes
fix		cold all langevin 280.0775 280.0775 0.05 46579 tally yes
fix_modify	cold temp Tcold

thermo_style	custom step temp c_Thot c_Tcold f_hot f_cold
run		${t1nve}
run		100000
Per MPI rank memory allocation (min/avg/max) = 4.868 | 4.87 | 4.871 Mbytes
Step Temp c_Thot c_Tcold f_hot f_cold 
   45001          300     294.6859    303.89986           -0           -0 
   46000    300.37384    322.33275    282.96843   -91.401334    82.157331 
   47000    299.47849    320.57417    279.33674   -101.40633    111.18166 
   48000    300.26943    321.34299    275.59763   -132.59128    126.09093 
   49000    300.17762    318.28656    278.40698   -140.24565    149.03014 
   50000    300.28372    321.86114    279.73088   -168.75616    171.42174 
   51000    300.20024    319.35066    278.99087   -177.94616    194.19816 
   52000    300.23398    317.96477    279.85649   -200.44391     216.2074 
   53000    299.99424    320.05659    283.00735   -223.47155     232.5508 
   54000    299.32495    309.91858    279.31504   -231.93617    261.23489 
   55000    300.09595    317.46597    279.74198   -264.53947    281.19204 
   56000    299.80373    316.04861    279.38975   -291.23134    316.25897 
   57000     299.2463    317.83496    279.73862   -317.64206     339.9389 
   58000    299.20018    317.01538    277.91968   -350.14313    376.69799 
   59000    299.64304    318.57039    278.06215   -386.49712    409.15995 
   60000    299.92281    322.37406    281.13091   -413.65568    435.45158 
   61000      299.556    316.90485    282.83625   -431.04223    465.29377 
   62000    299.82762    319.63483    280.82456   -464.98782    491.96383 
   63000    299.76932    320.72731    283.52549   -487.02919     518.3671 
   64000    300.23235    322.19793    279.74851   -521.08859    536.42886 
   65000    299.11727    318.77703    282.36781   -555.56863    575.43016 
   66000    299.85232    318.58214    282.48702   -580.01238     606.2593 
   67000    299.76132    318.87282    282.31499   -611.84325    644.00715 
   68000    300.25281    319.54126    282.79638   -648.06288    680.44253 
   69000    299.88399    320.10098    279.15553   -676.45529    710.94342 
   70000    299.51301    319.16415    280.81593   -706.76009    727.72958 
   71000    299.64194    320.16528    278.46448   -727.84423    770.60814 
   72000    298.54435    315.95285    280.33631    -774.0603    799.85923 
   73000    299.80179    319.66582    279.97599   -804.54102    818.22014 
   74000    300.18177    319.66209    282.82006    -834.3945    851.39116 
   75000    300.08538    320.35383    282.93161   -864.76567    888.63323 
   76000     298.9391    313.84777     278.5429   -890.53676    926.53642 
   77000    300.03212    318.76913    279.88955   -930.05009    954.86162 
   78000    300.20268    318.70579    277.52468   -952.55258    994.15846 
   79000    299.71223     323.1963     278.1738     -1004.95    1022.9313 
   80000    299.88392    320.81276     281.9646   -1038.0087     1053.174 
   81000    299.41948    322.98539    279.76375   -1073.4514    1090.8898 
   82000    299.86129    318.19661    280.05012   -1090.4695    1118.7749 
   83000    300.57542      320.002    285.37072   -1121.2445    1135.9382 
   84000    299.83057    320.14608    284.71831   -1154.7871    1182.1597 
   85000    299.90599    318.66986    283.07146   -1177.8111    1209.4654 
   86000    299.87221    321.91056     278.0948   -1223.4491    1257.0254 
   87000    299.21045    316.16731    279.31974   -1245.7476    1294.7349 
   88000    299.82111    319.23607    283.26838    -1279.826    1316.3978 
   89000    299.85838    322.46836    282.43748   -1320.9657    1341.6861 
   90000     299.5678    317.31956     283.4909    -1354.995    1378.2371 
   91000     300.3061    317.49264    277.73207   -1392.8192    1413.7744 
   92000    299.99241    319.58925    279.71359   -1425.0634    1430.6948 
   93000     300.1821    321.68302    280.30614   -1449.5125    1468.4294 
   94000    299.94891    316.69629    283.52734   -1484.5572    1493.6239 
   95000    300.54156    322.92768      282.086   -1522.1957    1528.6607 
   96000    299.25262    315.50154    281.26778   -1533.0287    1562.5314 
   97000    300.12606    318.43656    281.18484   -1569.7324    1587.5212 
   98000    300.63976    318.02703    283.77463   -1601.3802    1615.3455 
   99000    300.20282    320.31412    280.30817   -1631.2123    1653.2029 
  100000    299.27807    317.96336    281.27302    -1656.698    1688.3096 
  101000    299.01928    316.87374    280.25575   -1683.7806    1708.4385 
  102000    299.07808    323.63387    278.19428   -1721.9889    1747.0394 
  103000    300.47606    320.32014    278.32722   -1758.8181    1784.8393 
  104000    299.57621    317.01488     278.6414   -1777.6942    1806.6075 
  105000    300.47915    318.46348    278.14141   -1813.6628    1835.5867 
  106000    299.45029    321.92365    282.48766   -1844.3399    1873.5814 
  107000    300.04249     315.0507    283.93131   -1862.1851    1894.4444 
  108000    299.74136    321.48032    285.50299   -1890.7807    1933.8424 
  109000    299.70458     319.8522    284.69558   -1926.5135    1953.1744 
  110000      299.414    316.86774    285.17795   -1951.4114    1994.4901 
  111000    299.48644    314.13354    280.76272   -1978.2237    2029.1165 
  112000    299.92561    318.83969    282.08813   -2017.3505    2059.6432 
  113000    299.84497    320.23479    280.92147   -2045.5386    2082.2825 
  114000    299.79471    317.02562    283.30766   -2073.4016    2120.9108 
  115000    299.14026    316.68421    280.12799   -2095.7712    2155.3867 
  116000    299.19133    316.79662    282.60781   -2134.5924    2180.6497 
  117000    299.35274    324.23561    278.24177   -2168.3156    2214.1038 
  118000    299.12374     318.3056    279.19539   -2190.3681    2238.3402 
  119000    299.12214    315.88713    280.96717   -2218.4657    2277.6036 
  120000    299.09608    317.89929    281.28014   -2252.3462    2301.3218 
  121000    300.03032    319.00682    282.31824   -2289.1758    2331.6071 
  122000     299.1866    318.17074    281.24032   -2318.0583     2367.371 
  123000    298.80159    316.97226    277.45613    -2346.103    2392.6768 
  124000    299.27498    319.43916    278.01008   -2368.6244    2432.5843 
  125000    298.03147    320.56043    278.96832   -2397.7675     2461.746 
  126000    298.73325    319.54631    277.86329   -2433.9074    2491.6127 
  127000    299.10718    318.49076    279.57432   -2459.3596    2515.0922 
  128000     299.4232    319.51723    283.18965   -2493.1613    2536.7237 
  129000     300.2298    318.81259    287.58234   -2527.4863    2555.7421 
  130000    299.22934    319.35942     282.7955      -2554.5    2593.3231 
  131000    298.56684    313.54213    280.09193   -2578.8784    2630.1358 
  132000    299.24362    319.36789    283.67924   -2606.4876    2649.9455 
  133000    299.58221     320.4047    279.91438   -2640.8998    2695.0558 
  134000    299.47055     320.0783    284.35687   -2671.4968     2714.559 
  135000    299.82392    315.76736    275.66098   -2695.9293    2750.4169 
  136000     300.1428    318.18388    284.35088   -2729.0451    2780.5295 
  137000     300.4138    322.03434    280.02511   -2761.0953    2808.0576 
  138000    299.59712    320.25095    280.90976   -2781.7244    2844.8491 
  139000    299.33391     318.5081    283.10753   -2821.2783    2865.7305 
  140000    299.51158     320.4158    280.50721   -2847.9022    2907.5446 
  141000    298.78712    317.64796    282.15624   -2880.5511    2929.8985 
  142000    299.57153    318.03055    281.23454   -2911.7635    2965.3861 
  143000     299.2888    319.34212    283.71582   -2948.1847    2982.7857 
  144000     299.3476    321.69863    279.78676   -2980.1036    3022.4686 
  145000    299.68475    315.99621    280.20883   -3005.0151    3055.8208 
  145001    299.70485    316.04899     280.5868   -3004.9814    3055.4555 
Loop time of 1893.27 on 32 procs for 100000 steps with 193600 atoms

Performance: 2.282 ns/day, 10.518 hours/ns, 52.819 timesteps/s
79.9% CPU use with 32 MPI tasks x no OpenMP threads

MPI task timing breakdown:
Section |  min time  |  avg time  |  max time  |%varavg| %total
---------------------------------------------------------------
Pair    | 1073.6     | 1105.5     | 1128.6     |  32.4 | 58.39
Neigh   | 0          | 0          | 0          |   0.0 |  0.00
Comm    | 287.17     | 411.67     | 518.18     | 353.6 | 21.74
Output  | 0.098586   | 0.10518    | 0.10897    |   1.0 |  0.01
Modify  | 236.59     | 344.62     | 450.41     | 372.1 | 18.20
Other   |            | 31.35      |            |       |  1.66

Nlocal:    6050 ave 6103 max 5965 min
Histogram: 1 0 1 2 4 5 8 5 4 2
Nghost:    5892.5 ave 5977 max 5840 min
Histogram: 2 4 5 7 6 4 2 1 0 1
Neighs:    0 ave 0 max 0 min
Histogram: 32 0 0 0 0 0 0 0 0 0
FullNghs:  207869 ave 209684 max 205002 min
Histogram: 1 1 1 1 5 5 7 5 4 2

Total # of neighbors = 6651804
Ave neighs/atom = 34.3585
Neighbor list builds = 0
Dangerous builds = 0

# thermal conductivity calculation
# reset langevin thermostats to zero energy accumulation
reset_timestep 0
thermo		$c
thermo		500000
compute		ke all ke/atom
variable	temp atom c_ke/1.5/8.617332478e-5
fix		hot all langevin ${thi} ${thi} ${tdamp} 389516 tally yes
fix		hot all langevin 319.9225 ${thi} ${tdamp} 389516 tally yes
fix		hot all langevin 319.9225 319.9225 ${tdamp} 389516 tally yes
fix		hot all langevin 319.9225 319.9225 0.05 389516 tally yes
fix_modify	hot temp Thot
fix		cold all langevin ${tlo} ${tlo} ${tdamp} 46579 tally yes
fix		cold all langevin 280.0775 ${tlo} ${tdamp} 46579 tally yes
fix		cold all langevin 280.0775 280.0775 ${tdamp} 46579 tally yes
fix		cold all langevin 280.0775 280.0775 0.05 46579 tally yes
fix_modify	cold temp Tcold

compute		ch all chunk/atom bin/1d x lower 0.02 units reduced
fix		11 all ave/chunk $a $b $c ch v_temp file sw_${P}.langevin
fix		11 all ave/chunk 100 $b $c ch v_temp file sw_${P}.langevin
fix		11 all ave/chunk 100 5000 $c ch v_temp file sw_${P}.langevin
fix		11 all ave/chunk 100 5000 500000 ch v_temp file sw_${P}.langevin
fix		11 all ave/chunk 100 5000 500000 ch v_temp file sw_19.langevin
thermo_style	custom step temp c_Thot c_Tcold f_hot f_cold

run		${t2nve}
run		500000
Per MPI rank memory allocation (min/avg/max) = 5.118 | 5.12 | 5.121 Mbytes
Step Temp c_Thot c_Tcold f_hot f_cold 
       0    299.70485    315.78673     280.4934           -0           -0 
  500000    299.73935    318.86044    283.45539   -15577.955    15554.328 
Loop time of 9482.01 on 32 procs for 500000 steps with 193600 atoms

Performance: 2.278 ns/day, 10.536 hours/ns, 52.731 timesteps/s
79.9% CPU use with 32 MPI tasks x no OpenMP threads

MPI task timing breakdown:
Section |  min time  |  avg time  |  max time  |%varavg| %total
---------------------------------------------------------------
Pair    | 5449.8     | 5534.5     | 5629.6     |  66.7 | 58.37
Neigh   | 0          | 0          | 0          |   0.0 |  0.00
Comm    | 1502       | 2100.2     | 2618.4     | 774.3 | 22.15
Output  | 0.0008     | 0.0014866  | 0.001633   |   0.4 |  0.00
Modify  | 1191.6     | 1691.7     | 2278.1     | 845.5 | 17.84
Other   |            | 155.6      |            |       |  1.64

Nlocal:    6050 ave 6096 max 6015 min
Histogram: 4 6 1 4 2 5 5 4 0 1
Nghost:    5892.31 ave 5928 max 5847 min
Histogram: 1 0 5 4 5 2 4 1 7 3
Neighs:    0 ave 0 max 0 min
Histogram: 32 0 0 0 0 0 0 0 0 0
FullNghs:  207898 ave 209689 max 206502 min
Histogram: 2 3 6 4 2 7 2 5 0 1

Total # of neighbors = 6652732
Ave neighs/atom = 34.3633
Neighbor list builds = 0
Dangerous builds = 0
clear
next		P
jump		Si.in
 units       metal
#----------------------------- User Input Variables --------------------------------------
################### Geometrical Parameters ###############################
variable	P index 17 18 19 20
variable	W equal 22
# Lattice Constant
variable	LC equal 5.43
# Length
variable	L equal 50
# Width
#variable	W equal 6
# Height
variable	H equal ${W}
variable	H equal 22
################### Simulation Condition ###############################
#DT/DX=cte
variable	cte equal 1.5938
log         sw_${P}.log
log         sw_20.log
