# temperature
variable	T equal 300
#cold region temperature
#variable        tlo equal 275
variable        tlo equal ${T}-${L}*${cte}/4.0
variable        tlo equal 300-${L}*${cte}/4.0
variable        tlo equal 300-50*${cte}/4.0
variable        tlo equal 300-50*1.5938/4.0
#hot region temperature
#variable        thi equal ${cte}*${L}/2+${tlo}
variable        thi equal ${T}+${L}*${cte}/4.0
variable        thi equal 300+${L}*${cte}/4.0
variable        thi equal 300+50*${cte}/4.0
variable        thi equal 300+50*1.5938/4.0

#time step (picoseconds)
variable	dt equal 0.0005 # 0.5 femtoseconds
#number of time steps for NPT
variable	tnpt equal 5000
#number of time steps for NVT
variable	tnvt equal 40000
#number of time steps for first NVE
variable	t1nve equal 100000
#number of time steps for second NVE
variable	t2nve equal 500000

################### Variable Based on LAMMPS Documentation ######################
variable	a equal 100
variable	c equal ${t2nve}
variable	c equal 500000
variable	b equal $c/$a
variable	b equal 500000/$a
variable	b equal 500000/100
variable	tdamp equal ${dt}*100
variable	tdamp equal 0.0005*100
variable	pdamp equal ${dt}*1000
variable	pdamp equal 0.0005*1000

#----------------------------------------------------------------------------------------
# setup problem
dimension       3
boundary        p p p
atom_style      atomic
lattice 	diamond ${LC} origin 0.0 0.0 0.0 orient x 1 0 0 orient y 0 1 0 orient z 0 0 1
lattice 	diamond 5.43 origin 0.0 0.0 0.0 orient x 1 0 0 orient y 0 1 0 orient z 0 0 1
Lattice spacing in x,y,z = 5.43 5.43 5.43
region          0 block 0 $L 0 $W 0 $H units lattice side in
region          0 block 0 50 0 $W 0 $H units lattice side in
region          0 block 0 50 0 22 0 $H units lattice side in
region          0 block 0 50 0 22 0 22 units lattice side in
create_box      1 0
Created orthogonal box = (0 0 0) to (271.5 119.46 119.46)
  8 by 2 by 2 MPI processor grid
create_atoms    1 region 0
Created 193600 atoms
mass		1 28.0855
#dump		1 all xyz 1000 Si_W_${W}nm.xyz
#dump_modify	1 element Si

############################################
pair_style   sw
pair_coeff   * * Si${P}.sw Si
pair_coeff   * * Si11.sw Si
thermo		100
thermo_style custom step lx
min_style cg
minimize 0.0 1.0e-8 10000 100000
WARNING: Using 'neigh_modify every 1 delay 0 check yes' setting during minimization (../min.cpp:168)
Neighbor list info ...
  update every 1 steps, delay 0 steps, check yes
  max neighbors/atom: 2000, page size: 100000
  master list distance cutoff = 5.75242
  ghost atom cutoff = 5.75242
  binsize = 2.87621, bins = 95 42 42
  1 neighbor lists, perpetual/occasional/extra = 1 0 0
  (1) pair sw, perpetual
      attributes: full, newton on
      pair build: full/bin/atomonly
      stencil: full/bin/3d
      bin: standard
Per MPI rank memory allocation (min/avg/max) = 5.239 | 5.24 | 5.242 Mbytes
Step Lx 
       0        271.5 
       1        271.5 
Loop time of 0.0422534 on 32 procs for 1 steps with 193600 atoms

75.6% CPU use with 32 MPI tasks x no OpenMP threads

Minimization stats:
  Stopping criterion = force tolerance
  Energy initial, next-to-last, final = 
         -847444.70072      -847444.70072      -847444.70072
  Force two-norm initial, final = 8.76252e-11 8.7562e-11
  Force max component initial, final = 5.08635e-13 5.11424e-13
  Final line search alpha, max atom move = 1 5.11424e-13
  Iterations, force evaluations = 1 2

MPI task timing breakdown:
Section |  min time  |  avg time  |  max time  |%varavg| %total
---------------------------------------------------------------
Pair    | 0.024642   | 0.025008   | 0.025454   |   0.1 | 59.18
Neigh   | 0          | 0          | 0          |   0.0 |  0.00
Comm    | 0.006192   | 0.0095959  | 0.013572   |   2.1 | 22.71
Output  | 0          | 0          | 0          |   0.0 |  0.00
Modify  | 0          | 0          | 0          |   0.0 |  0.00
Other   |            | 0.00765    |            |       | 18.10

Nlocal:    6050 ave 6050 max 6050 min
Histogram: 32 0 0 0 0 0 0 0 0 0
Nghost:    5892.5 ave 5893 max 5892 min
Histogram: 16 0 0 0 0 0 0 0 0 16
Neighs:    0 ave 0 max 0 min
Histogram: 32 0 0 0 0 0 0 0 0 0
FullNghs:  205700 ave 205700 max 205700 min
Histogram: 32 0 0 0 0 0 0 0 0 0

Total # of neighbors = 6582400
Ave neighs/atom = 34
Neighbor list builds = 0
Dangerous builds = 0
timestep     ${dt}
timestep     0.0005
velocity 	all create $T 492845
velocity 	all create 300 492845


fix 		NPT all npt temp $T $T ${tdamp} iso 0.0 0.0 ${pdamp}
fix 		NPT all npt temp 300 $T ${tdamp} iso 0.0 0.0 ${pdamp}
fix 		NPT all npt temp 300 300 ${tdamp} iso 0.0 0.0 ${pdamp}
fix 		NPT all npt temp 300 300 0.05 iso 0.0 0.0 ${pdamp}
fix 		NPT all npt temp 300 300 0.05 iso 0.0 0.0 0.5
thermo		100
thermo_style custom step lx press
run		${tnpt}
run		5000
Per MPI rank memory allocation (min/avg/max) = 4.114 | 4.115 | 4.117 Mbytes
Step Lx Press 
       1        271.5   -10399.111 
     100    270.38442    1323.1299 
     200    270.62036    -423.4394 
     300    270.51475    202.66079 
     400    270.58469   -41.984705 
     500    270.57322    -15.87592 
     600    270.57823   -4.5820584 
     700     270.5951     114.9266 
     800    270.60925   -212.95661 
     900    270.61386    124.54063 
    1000    270.61308    115.88876 
    1100    270.65149   -266.86542 
    1200    270.63133    238.22194 
    1300    270.64761   -4.1338297 
    1400    270.66822    -111.7043 
    1500    270.65273    101.20663 
    1600    270.66121    2.2854052 
    1700    270.66264   -43.499248 
    1800    270.65835   -37.568491 
    1900    270.64852    101.56738 
    2000    270.66407   -103.76637 
    2100    270.65623     32.93269 
    2200    270.65742    48.145408 
    2300    270.66506    -83.30669 
    2400    270.65327    61.675325 
    2500    270.65869   -12.426022 
    2600     270.6553    3.8045975 
    2700    270.66016    3.5061527 
    2800    270.65872    9.0424294 
    2900    270.66218   -22.977806 
    3000     270.6538     16.75749 
    3100    270.65784    -3.071384 
    3200    270.66348     -28.2136 
    3300    270.65344    27.786971 
    3400    270.65712    9.9244139 
    3500     270.6671   -68.526843 
    3600    270.64624    81.967156 
    3700    270.66885   -46.489863 
    3800    270.65326   -13.897363 
    3900    270.65913    29.793245 
    4000    270.65675   -6.7629412 
    4100    270.65931   -30.539614 
    4200    270.66032    19.237125 
    4300    270.65137    32.564615 
    4400    270.67131   -103.59597 
    4500    270.64289    134.05676 
    4600    270.66827   -100.77877 
    4700    270.65572    24.098574 
    4800    270.65412    50.564654 
    4900    270.66654      -74.225 
    5000    270.65067    64.661378 
    5001    270.65068     64.16922 
Loop time of 116.016 on 32 procs for 5000 steps with 193600 atoms

Performance: 1.862 ns/day, 12.891 hours/ns, 43.098 timesteps/s
84.3% CPU use with 32 MPI tasks x no OpenMP threads

MPI task timing breakdown:
Section |  min time  |  avg time  |  max time  |%varavg| %total
---------------------------------------------------------------
Pair    | 83.628     | 84.836     | 85.976     |   5.6 | 73.12
Neigh   | 0.011814   | 0.012486   | 0.013253   |   0.3 |  0.01
Comm    | 11.49      | 17.465     | 22.733     |  83.3 | 15.05
Output  | 0.029028   | 0.032971   | 0.036303   |   1.4 |  0.03
Modify  | 7.4521     | 12.752     | 18.171     |  91.4 | 10.99
Other   |            | 0.9174     |            |       |  0.79

Nlocal:    6050 ave 6088 max 6010 min
Histogram: 1 2 1 5 4 8 5 4 1 1
Nghost:    5892.5 ave 5933 max 5855 min
Histogram: 1 1 4 6 6 5 5 1 2 1
Neighs:    0 ave 0 max 0 min
Histogram: 32 0 0 0 0 0 0 0 0 0
FullNghs:  206420 ave 207705 max 205086 min
Histogram: 2 1 2 4 3 10 4 3 2 1

Total # of neighbors = 6605424
Ave neighs/atom = 34.1189
Neighbor list builds = 1
Dangerous builds = 0
unfix		NPT
variable	length equal lx/${LC}
variable	length equal lx/5.43

################### Geometrical Parameters After Relaxation ###############################
# Thermostat_width
variable	TW equal ${length}/40
variable	TW equal 49.843588381108/40
# Hot_Start
variable	hs equal ${length}/4-${TW}
variable	hs equal 49.843588381108/4-${TW}
variable	hs equal 49.843588381108/4-1.2460897095277
# Hot_End
variable	he equal ${length}/4+${TW}
variable	he equal 49.843588381108/4+${TW}
variable	he equal 49.843588381108/4+1.2460897095277
# Cold_Start
variable	cs equal 3*${length}/4-${TW}
variable	cs equal 3*49.843588381108/4-${TW}
variable	cs equal 3*49.843588381108/4-1.2460897095277
# Cold_End
variable	ce equal 3*${length}/4+${TW}
variable	ce equal 3*49.843588381108/4+${TW}
variable	ce equal 3*49.843588381108/4+1.2460897095277
###########################################################################################

################### Defining Thermostat ###################################################
region 		hot block ${hs} ${he} EDGE EDGE EDGE EDGE
region 		hot block 11.2148073857493 ${he} EDGE EDGE EDGE EDGE
region 		hot block 11.2148073857493 13.7069868048047 EDGE EDGE EDGE EDGE
region 		cold block ${cs} ${ce} EDGE EDGE EDGE EDGE
region 		cold block 36.1366015763033 ${ce} EDGE EDGE EDGE EDGE
region 		cold block 36.1366015763033 38.6287809953587 EDGE EDGE EDGE EDGE
group		test region cold
9574 atoms in group test
group		test1 region hot
9565 atoms in group test1
compute		Thot all temp/region hot
compute         Tcold all temp/region cold
###########################################################################################

fix		NVT all nvt temp $T $T ${tdamp}
fix		NVT all nvt temp 300 $T ${tdamp}
fix		NVT all nvt temp 300 300 ${tdamp}
fix		NVT all nvt temp 300 300 0.05
thermo		1000
thermo_style	custom step temp
run		${tnvt}
run		40000
Per MPI rank memory allocation (min/avg/max) = 4.118 | 4.119 | 4.121 Mbytes
Step Temp 
    5001    298.61441 
    6000    299.21629 
    7000    298.25928 
    8000    297.77361 
    9000    302.02485 
   10000    297.55079 
   11000    299.26281 
   12000    299.73343 
   13000    300.74753 
   14000    301.48831 
   15000    298.08634 
   16000     299.1315 
   17000    301.88597 
   18000    302.35935 
   19000    299.28717 
   20000    300.51613 
   21000    300.06094 
   22000    300.36592 
   23000    299.42815 
   24000    299.02672 
   25000     299.3927 
   26000    299.29144 
   27000    300.99077 
   28000    300.09261 
   29000    300.57886 
   30000    299.46273 
   31000    300.09157 
   32000    298.61186 
   33000    299.63432 
   34000    299.90382 
   35000    300.45587 
   36000    300.60847 
   37000    300.67239 
   38000    299.91709 
   39000    300.98959 
   40000    300.81478 
   41000    299.89869 
   42000    300.43423 
   43000     299.8419 
   44000    299.67012 
   45000    300.57614 
   45001    300.53948 
Loop time of 947.11 on 32 procs for 40000 steps with 193600 atoms

Performance: 1.824 ns/day, 13.154 hours/ns, 42.234 timesteps/s
84.4% CPU use with 32 MPI tasks x no OpenMP threads

MPI task timing breakdown:
Section |  min time  |  avg time  |  max time  |%varavg| %total
---------------------------------------------------------------
Pair    | 687.67     | 700.52     | 707.86     |  17.9 | 73.96
Neigh   | 0          | 0          | 0          |   0.0 |  0.00
Comm    | 118.01     | 160.88     | 203.84     | 217.8 | 16.99
Output  | 0.023199   | 0.025142   | 0.028553   |   0.8 |  0.00
Modify  | 29.846     | 72.342     | 109.69     | 296.4 |  7.64
Other   |            | 13.34      |            |       |  1.41

Nlocal:    6050 ave 6092 max 5968 min
Histogram: 1 0 1 3 3 4 2 6 7 5
Nghost:    5892.5 ave 5975 max 5851 min
Histogram: 5 8 5 2 4 3 3 1 0 1
Neighs:    0 ave 0 max 0 min
Histogram: 32 0 0 0 0 0 0 0 0 0
FullNghs:  209284 ave 210682 max 206105 min
Histogram: 1 0 1 2 4 4 1 5 6 8

Total # of neighbors = 6697072
Ave neighs/atom = 34.5923
Neighbor list builds = 0
Dangerous builds = 0
velocity	all scale $T
velocity	all scale 300
unfix		NVT

fix		NVE all nve
fix		hot all langevin ${thi} ${thi} ${tdamp} 389516 tally yes
fix		hot all langevin 319.9225 ${thi} ${tdamp} 389516 tally yes
fix		hot all langevin 319.9225 319.9225 ${tdamp} 389516 tally yes
fix		hot all langevin 319.9225 319.9225 0.05 389516 tally yes
fix_modify	hot temp Thot
fix		cold all langevin ${tlo} ${tlo} ${tdamp} 46579 tally yes
fix		cold all langevin 280.0775 ${tlo} ${tdamp} 46579 tally yes
fix		cold all langevin 280.0775 280.0775 ${tdamp} 46579 tally yes
fix		cold all langevin 280.0775 280.0775 0.05 46579 tally yes
fix_modify	cold temp Tcold

thermo_style	custom step temp c_Thot c_Tcold f_hot f_cold
run		${t1nve}
run		100000
Per MPI rank memory allocation (min/avg/max) = 4.868 | 4.869 | 4.871 Mbytes
Step Temp c_Thot c_Tcold f_hot f_cold 
   45001          300    299.22239    300.63217           -0           -0 
   46000    299.76447    326.74058    282.10448   -80.212109    80.252509 
   47000     299.6802    322.96365    284.20284   -93.172757     92.84239 
   48000    298.95526     318.6658    277.33486   -110.77398    122.14648 
   49000    299.83096    322.03288    279.22156   -123.57867    139.17831 
   50000    300.04389    319.07501    282.44054   -141.71446    160.67289 
   51000    299.05072    318.99304    278.90137    -171.2605    175.40219 
   52000    299.81001    321.84433    279.64471   -192.81287    194.46251 
   53000    299.51608     318.8177    279.77384   -210.52334    222.18765 
   54000    299.81427    317.15235    282.26618   -238.28471     246.3647 
   55000    299.35326    321.37911    278.50295   -271.00087    273.77128 
   56000    300.03603    322.89224    280.78711   -294.21548    296.82253 
   57000    299.69362    314.23193    282.37385   -314.13933    320.97264 
   58000    299.71324    317.67016    283.43811   -348.51901    349.18367 
   59000    299.55473    318.76594    275.83884   -383.21437    393.32599 
   60000    299.38451    315.79814    280.01205   -399.54269    409.54547 
   61000    299.80563    321.77655    278.74842   -439.66366     436.0545 
   62000    299.13279    321.54965    285.15338   -455.85963    459.43607 
   63000    299.51349    320.33845    278.41745   -481.92783     507.6397 
   64000    299.83873    315.62933    276.61429   -520.43079    539.47009 
   65000    299.06991    318.56712    280.23547   -548.86338    554.72432 
   66000    299.16928    319.36449    280.78919   -586.92353    588.84689 
   67000    300.21105    320.19783    279.96723    -622.3344    623.09181 
   68000    298.92114    318.08486    274.75022   -651.14349    650.76477 
   69000    300.04203    323.27954    286.19812   -690.80033    677.61938 
   70000     299.7351    320.72753     277.4659   -721.19955    716.96616 
   71000    299.91644       318.63    281.36964   -750.91132     736.1233 
   72000    300.83644    322.24874    279.61846   -795.07464    771.95282 
   73000     299.8321      324.828    278.16787   -812.13164    796.73718 
   74000    299.34807    316.97772    278.90756   -827.86716    827.15471 
   75000     299.6571    316.95829    284.80496   -859.61228    844.90891 
   76000    299.59593    320.82863    280.02795   -886.09096    882.45023 
   77000    299.69651    318.30868    281.77388   -917.27953    911.77639 
   78000     300.1689    320.91882    278.64875   -948.78761    943.09358 
   79000    300.87066    321.08646    282.98593   -988.60772    972.90197 
   80000    299.72479    318.79864    281.40007   -1004.6166     991.8683 
   81000    299.88723    315.88329    282.59938   -1034.4186    1030.6415 
   82000     299.6257     317.0469    279.78353   -1066.7648    1065.1001 
   83000    300.15388    320.23539    280.62216   -1094.1862    1084.2779 
   84000    300.19147    318.50824    284.18626    -1122.233    1110.8366 
   85000    300.50253    322.53868    280.39041   -1172.2372    1134.9814 
   86000    300.02766    316.72061    281.75649   -1186.8149     1161.723 
   87000    300.17438    320.90886     282.8091   -1225.2629    1198.5181 
   88000    300.55523    319.88592    281.16992   -1243.7311    1231.1751 
   89000    299.59485    319.66362    283.50321   -1273.4995    1267.3892 
   90000     300.0881    320.04467    280.23949   -1301.3335     1304.354 
   91000    299.09733    317.52172    280.81383     -1324.17    1320.3965 
   92000    300.05946    315.05551    279.65735   -1343.1229    1354.3861 
   93000    299.51083    320.79653    280.87779   -1387.0571    1380.0329 
   94000    299.29381    318.87841    281.32206   -1409.7505    1417.6027 
   95000    299.95705    319.14832     282.9969   -1445.4003    1436.8845 
   96000    299.62054    318.61511    279.18974   -1480.8339     1463.181 
   97000    299.46581    319.41288    281.61832   -1509.3411    1505.1084 
   98000    300.34512    318.96774    281.94916    -1538.629    1523.6483 
   99000    299.89244    320.29677    278.77364   -1565.4697    1561.3379 
  100000    299.89223    319.64967    281.82498   -1592.4382    1585.3453 
  101000    299.51733    318.54276    277.25214   -1618.6724    1624.9639 
  102000    299.40822    320.50596     281.6825   -1644.9828    1646.2419 
  103000    299.90357    320.83038    281.82432   -1671.6145    1687.4651 
  104000    299.62575    320.08972    280.32556   -1689.4162    1708.7457 
  105000    298.59018    321.39442    278.32922   -1719.0639    1743.4228 
  106000    298.86399     315.7544    280.19165   -1747.2996    1781.7521 
  107000    299.09213    315.48264    281.37448   -1772.9449    1812.6263 
  108000    298.92385    314.90351    278.36295   -1806.8316    1841.7331 
  109000    299.63927    319.03287    282.50238   -1842.2096    1866.5069 
  110000    299.00242    314.39959    276.99273   -1871.7912    1896.4334 
  111000    298.99679    317.08997    280.22461    -1909.445    1918.7994 
  112000    299.48168    320.40116    279.50344    -1944.792    1952.9835 
  113000    300.01221    321.07677    279.67745   -1970.6983    1981.9435 
  114000    299.82164    318.93044    280.16106   -1992.5671    2001.3156 
  115000    299.94326    321.96445     283.9908   -2044.1599    2015.8967 
  116000     300.3007     316.5547    282.03146   -2060.0651    2058.2163 
  117000    299.83055     316.9428    281.51796   -2084.8429    2081.6778 
  118000     299.4446    318.29165     282.0964   -2122.9217    2110.3038 
  119000    299.56064    320.60918    279.94415   -2149.5605    2139.9737 
  120000    299.59472    323.42363    279.86151   -2174.5864     2169.596 
  121000    299.73891    324.35917    284.42459   -2208.5903    2196.6428 
  122000    299.79139    319.72675    280.61709   -2221.4665     2229.635 
  123000    299.41038    324.62382    280.07153   -2245.0201    2259.7724 
  124000    299.25992    317.55001    281.24787   -2262.2104    2276.2844 
  125000    299.37506    316.10752    278.38325   -2288.0249    2307.1484 
  126000    299.03417    317.78207    282.12173   -2313.0608    2328.3034 
  127000      299.042    315.70731     280.0495   -2344.2082    2363.8277 
  128000    299.50366    316.22777     283.7879   -2369.0009    2388.7048 
  129000    299.10032    316.23624    283.41037   -2388.4504    2418.4858 
  130000    299.02703    316.17148    280.17046   -2425.8103    2450.6365 
  131000    300.19425    321.30221    284.65133   -2463.9089    2475.5187 
  132000    299.24936    321.20225    280.95817   -2492.8644    2505.4224 
  133000    299.53373    315.55492    284.78521   -2519.4646    2521.8538 
  134000    299.52127    316.15082     280.3297    -2548.082    2561.9807 
  135000    300.03975    316.26317    280.91121   -2572.9894    2587.3939 
  136000    299.60319     321.0728    276.74163   -2612.2696    2611.9552 
  137000    299.58154    320.26119    281.64338   -2636.4127    2641.8759 
  138000    298.79564    317.85405    282.42772   -2660.1388    2675.4559 
  139000    300.42643    317.44812    283.93664    -2690.065    2700.6284 
  140000    299.68292    319.36464    280.96524   -2718.6667    2733.6336 
  141000     299.8346    317.73608    282.14668   -2743.8316     2765.543 
  142000    299.20592    323.40538    277.31101   -2774.0327    2806.9732 
  143000    299.25661    314.44473    279.19612   -2795.0214    2825.1333 
  144000    298.73761     320.1463    285.11359   -2837.3766    2850.0575 
  145000    298.57549    318.32207    282.98636   -2864.3131    2884.6116 
  145001    298.56754    318.20951    282.62406   -2864.3875    2885.0959 
Loop time of 2473.88 on 32 procs for 100000 steps with 193600 atoms

Performance: 1.746 ns/day, 13.744 hours/ns, 40.422 timesteps/s
84.9% CPU use with 32 MPI tasks x no OpenMP threads

MPI task timing breakdown:
Section |  min time  |  avg time  |  max time  |%varavg| %total
---------------------------------------------------------------
Pair    | 1719.6     | 1751.7     | 1789.9     |  35.4 | 70.81
Neigh   | 0          | 0          | 0          |   0.0 |  0.00
Comm    | 270.2      | 391.6      | 507.8      | 345.8 | 15.83
Output  | 0.097664   | 0.10782    | 0.11085    |   0.8 |  0.00
Modify  | 200.6      | 296.6      | 397.48     | 358.2 | 11.99
Other   |            | 33.87      |            |       |  1.37

Nlocal:    6050 ave 6091 max 5996 min
Histogram: 4 1 1 3 2 1 7 6 5 2
Nghost:    5892.5 ave 5946 max 5852 min
Histogram: 2 5 6 7 0 3 3 1 1 4
Neighs:    0 ave 0 max 0 min
Histogram: 32 0 0 0 0 0 0 0 0 0
FullNghs:  209255 ave 210856 max 207152 min
Histogram: 2 3 1 3 2 3 5 7 3 3

Total # of neighbors = 6696158
Ave neighs/atom = 34.5876
Neighbor list builds = 0
Dangerous builds = 0

# thermal conductivity calculation
# reset langevin thermostats to zero energy accumulation
reset_timestep 0
thermo		$c
thermo		500000
compute		ke all ke/atom
variable	temp atom c_ke/1.5/8.617332478e-5
fix		hot all langevin ${thi} ${thi} ${tdamp} 389516 tally yes
fix		hot all langevin 319.9225 ${thi} ${tdamp} 389516 tally yes
fix		hot all langevin 319.9225 319.9225 ${tdamp} 389516 tally yes
fix		hot all langevin 319.9225 319.9225 0.05 389516 tally yes
fix_modify	hot temp Thot
fix		cold all langevin ${tlo} ${tlo} ${tdamp} 46579 tally yes
fix		cold all langevin 280.0775 ${tlo} ${tdamp} 46579 tally yes
fix		cold all langevin 280.0775 280.0775 ${tdamp} 46579 tally yes
fix		cold all langevin 280.0775 280.0775 0.05 46579 tally yes
fix_modify	cold temp Tcold

compute		ch all chunk/atom bin/1d x lower 0.02 units reduced
fix		11 all ave/chunk $a $b $c ch v_temp file sw_${P}.langevin
fix		11 all ave/chunk 100 $b $c ch v_temp file sw_${P}.langevin
fix		11 all ave/chunk 100 5000 $c ch v_temp file sw_${P}.langevin
fix		11 all ave/chunk 100 5000 500000 ch v_temp file sw_${P}.langevin
fix		11 all ave/chunk 100 5000 500000 ch v_temp file sw_11.langevin
thermo_style	custom step temp c_Thot c_Tcold f_hot f_cold

run		${t2nve}
run		500000
Per MPI rank memory allocation (min/avg/max) = 5.118 | 5.12 | 5.121 Mbytes
Step Temp c_Thot c_Tcold f_hot f_cold 
       0    298.56754    317.76372    282.14503           -0           -0 
  500000    299.92583    317.73394    279.29806   -14919.272    14879.817 
Loop time of 12458.9 on 32 procs for 500000 steps with 193600 atoms

Performance: 1.734 ns/day, 13.843 hours/ns, 40.132 timesteps/s
84.8% CPU use with 32 MPI tasks x no OpenMP threads

MPI task timing breakdown:
Section |  min time  |  avg time  |  max time  |%varavg| %total
---------------------------------------------------------------
Pair    | 8583.3     | 8763.5     | 8919.6     |  72.9 | 70.34
Neigh   | 0          | 0          | 0          |   0.0 |  0.00
Comm    | 1422.3     | 2025.8     | 2528.3     | 806.7 | 16.26
Output  | 0.000893   | 0.0016129  | 0.001716   |   0.3 |  0.00
Modify  | 1022.9     | 1510.5     | 2070.6     | 864.0 | 12.12
Other   |            | 159.1      |            |       |  1.28

Nlocal:    6050 ave 6089 max 6001 min
Histogram: 1 1 3 2 5 7 3 4 4 2
Nghost:    5892.38 ave 5942 max 5854 min
Histogram: 2 4 4 3 7 6 1 3 1 1
Neighs:    0 ave 0 max 0 min
Histogram: 32 0 0 0 0 0 0 0 0 0
FullNghs:  209281 ave 210654 max 207487 min
Histogram: 2 1 2 2 6 4 5 4 3 3

Total # of neighbors = 6696990
Ave neighs/atom = 34.5919
Neighbor list builds = 0
Dangerous builds = 0
clear
next		P
jump		Si.in
 units       metal
#----------------------------- User Input Variables --------------------------------------
################### Geometrical Parameters ###############################
variable	P index 9 10 11 12
variable	W equal 22
# Lattice Constant
variable	LC equal 5.43
# Length
variable	L equal 50
# Width
#variable	W equal 6
# Height
variable	H equal ${W}
variable	H equal 22
################### Simulation Condition ###############################
#DT/DX=cte
variable	cte equal 1.5938
log         sw_${P}.log
log         sw_12.log
