# temperature
variable	T equal 300
#cold region temperature
#variable        tlo equal 275
variable        tlo equal ${T}-${L}*${cte}/4.0
variable        tlo equal 300-${L}*${cte}/4.0
variable        tlo equal 300-50*${cte}/4.0
variable        tlo equal 300-50*1.5938/4.0
#hot region temperature
#variable        thi equal ${cte}*${L}/2+${tlo}
variable        thi equal ${T}+${L}*${cte}/4.0
variable        thi equal 300+${L}*${cte}/4.0
variable        thi equal 300+50*${cte}/4.0
variable        thi equal 300+50*1.5938/4.0

#time step (picoseconds)
variable	dt equal 0.0005 # 0.5 femtoseconds
#number of time steps for NPT
variable	tnpt equal 5000
#number of time steps for NVT
variable	tnvt equal 40000
#number of time steps for first NVE
variable	t1nve equal 100000
#number of time steps for second NVE
variable	t2nve equal 500000

################### Variable Based on LAMMPS Documentation ######################
variable	a equal 100
variable	c equal ${t2nve}
variable	c equal 500000
variable	b equal $c/$a
variable	b equal 500000/$a
variable	b equal 500000/100
variable	tdamp equal ${dt}*100
variable	tdamp equal 0.0005*100
variable	pdamp equal ${dt}*1000
variable	pdamp equal 0.0005*1000

#----------------------------------------------------------------------------------------
# setup problem
dimension       3
boundary        p p p
atom_style      atomic
lattice 	diamond ${LC} origin 0.0 0.0 0.0 orient x 1 0 0 orient y 0 1 0 orient z 0 0 1
lattice 	diamond 5.43 origin 0.0 0.0 0.0 orient x 1 0 0 orient y 0 1 0 orient z 0 0 1
Lattice spacing in x,y,z = 5.43 5.43 5.43
region          0 block 0 $L 0 $W 0 $H units lattice side in
region          0 block 0 50 0 $W 0 $H units lattice side in
region          0 block 0 50 0 22 0 $H units lattice side in
region          0 block 0 50 0 22 0 22 units lattice side in
create_box      1 0
Created orthogonal box = (0 0 0) to (271.5 119.46 119.46)
  8 by 2 by 2 MPI processor grid
create_atoms    1 region 0
Created 193600 atoms
mass		1 28.0855
#dump		1 all xyz 1000 Si_W_${W}nm.xyz
#dump_modify	1 element Si

############################################
pair_style   sw
pair_coeff   * * Si${P}.sw Si
pair_coeff   * * Si18.sw Si
thermo		100
thermo_style custom step lx
min_style cg
minimize 0.0 1.0e-8 10000 100000
WARNING: Using 'neigh_modify every 1 delay 0 check yes' setting during minimization (../min.cpp:168)
Neighbor list info ...
  update every 1 steps, delay 0 steps, check yes
  max neighbors/atom: 2000, page size: 100000
  master list distance cutoff = 5.72651
  ghost atom cutoff = 5.72651
  binsize = 2.86325, bins = 95 42 42
  1 neighbor lists, perpetual/occasional/extra = 1 0 0
  (1) pair sw, perpetual
      attributes: full, newton on
      pair build: full/bin/atomonly
      stencil: full/bin/3d
      bin: standard
Per MPI rank memory allocation (min/avg/max) = 5.239 | 5.24 | 5.242 Mbytes
Step Lx 
       0        271.5 
       1        271.5 
Loop time of 0.0427719 on 32 procs for 1 steps with 193600 atoms

76.4% CPU use with 32 MPI tasks x no OpenMP threads

Minimization stats:
  Stopping criterion = force tolerance
  Energy initial, next-to-last, final = 
        -760475.027952     -760475.027952     -760475.027952
  Force two-norm initial, final = 9.1348e-11 9.12812e-11
  Force max component initial, final = 5.3287e-13 5.34961e-13
  Final line search alpha, max atom move = 1 5.34961e-13
  Iterations, force evaluations = 1 2

MPI task timing breakdown:
Section |  min time  |  avg time  |  max time  |%varavg| %total
---------------------------------------------------------------
Pair    | 0.024632   | 0.024975   | 0.025301   |   0.1 | 58.39
Neigh   | 0          | 0          | 0          |   0.0 |  0.00
Comm    | 0.006816   | 0.010164   | 0.013949   |   2.0 | 23.76
Output  | 0          | 0          | 0          |   0.0 |  0.00
Modify  | 0          | 0          | 0          |   0.0 |  0.00
Other   |            | 0.007633   |            |       | 17.85

Nlocal:    6050 ave 6050 max 6050 min
Histogram: 32 0 0 0 0 0 0 0 0 0
Nghost:    5892.5 ave 5893 max 5892 min
Histogram: 16 0 0 0 0 0 0 0 0 16
Neighs:    0 ave 0 max 0 min
Histogram: 32 0 0 0 0 0 0 0 0 0
FullNghs:  205700 ave 205700 max 205700 min
Histogram: 32 0 0 0 0 0 0 0 0 0

Total # of neighbors = 6582400
Ave neighs/atom = 34
Neighbor list builds = 0
Dangerous builds = 0
timestep     ${dt}
timestep     0.0005
velocity 	all create $T 492845
velocity 	all create 300 492845


fix 		NPT all npt temp $T $T ${tdamp} iso 0.0 0.0 ${pdamp}
fix 		NPT all npt temp 300 $T ${tdamp} iso 0.0 0.0 ${pdamp}
fix 		NPT all npt temp 300 300 ${tdamp} iso 0.0 0.0 ${pdamp}
fix 		NPT all npt temp 300 300 0.05 iso 0.0 0.0 ${pdamp}
fix 		NPT all npt temp 300 300 0.05 iso 0.0 0.0 0.5
thermo		100
thermo_style custom step lx press
run		${tnpt}
run		5000
Per MPI rank memory allocation (min/avg/max) = 4.114 | 4.115 | 4.117 Mbytes
Step Lx Press 
       1        271.5   -19901.707 
     100     269.7415   -1205.7992 
     200    269.64089    70.682543 
     300    269.64834   -51.712288 
     400    269.67258    109.77969 
     500    269.67967  -0.30551662 
     600    269.70359    4.2820876 
     700    269.71065     69.06148 
     800    269.73533   -24.738404 
     900    269.74945    11.437753 
    1000    269.76756   -9.4472053 
    1100    269.78051    56.959705 
    1200     269.7982   -25.552722 
    1300    269.80967    24.464369 
    1400    269.82019    4.6440292 
    1500    269.82633   -3.0349571 
    1600    269.82899    -19.22048 
    1700    269.82147    7.5982299 
    1800    269.81679    12.374324 
    1900    269.81565    4.2057689 
    2000    269.81844    2.0140094 
    2100     269.8227    7.0049794 
    2200    269.82456    7.8380685 
    2300    269.82433    6.8680581 
    2400     269.8199   -14.965592 
    2500    269.81323    46.928788 
    2600    269.82199   -32.047679 
    2700    269.82091   -12.014951 
    2800    269.82515    14.417586 
    2900    269.82066   -11.937943 
    3000    269.82497   -5.3238761 
    3100    269.80903    65.001461 
    3200    269.83374   -134.37609 
    3300    269.80013    209.07558 
    3400    269.84128   -220.75856 
    3500    269.81362    134.80959 
    3600     269.8194   -3.5651482 
    3700    269.83182   -127.51331 
    3800    269.80357    159.99586 
    3900    269.83104   -110.66562 
    4000    269.81408    65.339772 
    4100    269.82694   -27.417217 
    4200    269.81971    4.9471942 
    4300    269.82516   -39.629309 
    4400    269.81331    55.686411 
    4500    269.82371   -55.432922 
    4600    269.81779    37.011313 
    4700    269.82392   -11.397861 
    4800      269.821   -3.7860039 
    4900    269.82291   -8.7661113 
    5000    269.81816    31.044537 
    5001    269.81824    30.835995 
Loop time of 96.7942 on 32 procs for 5000 steps with 193600 atoms

Performance: 2.232 ns/day, 10.755 hours/ns, 51.656 timesteps/s
82.9% CPU use with 32 MPI tasks x no OpenMP threads

MPI task timing breakdown:
Section |  min time  |  avg time  |  max time  |%varavg| %total
---------------------------------------------------------------
Pair    | 64.786     | 65.408     | 66.221     |   4.5 | 67.57
Neigh   | 0.024145   | 0.025289   | 0.033522   |   1.0 |  0.03
Comm    | 11.791     | 17.657     | 23.042     |  82.3 | 18.24
Output  | 0.025823   | 0.030621   | 0.03402    |   1.5 |  0.03
Modify  | 7.6608     | 12.82      | 17.975     |  94.3 | 13.24
Other   |            | 0.8536     |            |       |  0.88

Nlocal:    6050 ave 6082 max 6015 min
Histogram: 1 3 4 3 4 4 3 3 6 1
Nghost:    5892.5 ave 5927 max 5861 min
Histogram: 2 5 3 3 4 3 4 3 4 1
Neighs:    0 ave 0 max 0 min
Histogram: 32 0 0 0 0 0 0 0 0 0
FullNghs:  206320 ave 207404 max 205113 min
Histogram: 1 3 4 3 4 3 4 3 5 2

Total # of neighbors = 6602242
Ave neighs/atom = 34.1025
Neighbor list builds = 2
Dangerous builds = 0
unfix		NPT
variable	length equal lx/${LC}
variable	length equal lx/5.43

################### Geometrical Parameters After Relaxation ###############################
# Thermostat_width
variable	TW equal ${length}/40
variable	TW equal 49.6902838228811/40
# Hot_Start
variable	hs equal ${length}/4-${TW}
variable	hs equal 49.6902838228811/4-${TW}
variable	hs equal 49.6902838228811/4-1.24225709557203
# Hot_End
variable	he equal ${length}/4+${TW}
variable	he equal 49.6902838228811/4+${TW}
variable	he equal 49.6902838228811/4+1.24225709557203
# Cold_Start
variable	cs equal 3*${length}/4-${TW}
variable	cs equal 3*49.6902838228811/4-${TW}
variable	cs equal 3*49.6902838228811/4-1.24225709557203
# Cold_End
variable	ce equal 3*${length}/4+${TW}
variable	ce equal 3*49.6902838228811/4+${TW}
variable	ce equal 3*49.6902838228811/4+1.24225709557203
###########################################################################################

################### Defining Thermostat ###################################################
region 		hot block ${hs} ${he} EDGE EDGE EDGE EDGE
region 		hot block 11.1803138601482 ${he} EDGE EDGE EDGE EDGE
region 		hot block 11.1803138601482 13.6648280512923 EDGE EDGE EDGE EDGE
region 		cold block ${cs} ${ce} EDGE EDGE EDGE EDGE
region 		cold block 36.0254557715888 ${ce} EDGE EDGE EDGE EDGE
region 		cold block 36.0254557715888 38.5099699627329 EDGE EDGE EDGE EDGE
group		test region cold
9575 atoms in group test
group		test1 region hot
9567 atoms in group test1
compute		Thot all temp/region hot
compute         Tcold all temp/region cold
###########################################################################################

fix		NVT all nvt temp $T $T ${tdamp}
fix		NVT all nvt temp 300 $T ${tdamp}
fix		NVT all nvt temp 300 300 ${tdamp}
fix		NVT all nvt temp 300 300 0.05
thermo		1000
thermo_style	custom step temp
run		${tnvt}
run		40000
Per MPI rank memory allocation (min/avg/max) = 4.118 | 4.119 | 4.121 Mbytes
Step Temp 
    5001    300.23974 
    6000    302.32737 
    7000    299.06977 
    8000    300.58445 
    9000    302.27921 
   10000    300.78079 
   11000    302.33923 
   12000    301.25371 
   13000    298.91451 
   14000    299.03644 
   15000    299.92737 
   16000    300.30628 
   17000      299.202 
   18000    301.64248 
   19000    301.47502 
   20000    299.96365 
   21000    299.41436 
   22000    297.80063 
   23000    299.68281 
   24000    297.87077 
   25000    301.62918 
   26000    297.86842 
   27000    299.72335 
   28000    300.68703 
   29000    300.29311 
   30000    301.60389 
   31000     300.2319 
   32000    298.84821 
   33000    299.51361 
   34000    301.05053 
   35000    299.24241 
   36000    300.46219 
   37000    300.07791 
   38000     300.3311 
   39000    301.25354 
   40000    299.81059 
   41000    299.63338 
   42000    299.44155 
   43000    300.16526 
   44000    301.00456 
   45000    298.90989 
   45001    298.99024 
Loop time of 800.863 on 32 procs for 40000 steps with 193600 atoms

Performance: 2.158 ns/day, 11.123 hours/ns, 49.946 timesteps/s
82.1% CPU use with 32 MPI tasks x no OpenMP threads

MPI task timing breakdown:
Section |  min time  |  avg time  |  max time  |%varavg| %total
---------------------------------------------------------------
Pair    | 529.95     | 536.81     | 547.7      |  17.5 | 67.03
Neigh   | 0          | 0          | 0          |   0.0 |  0.00
Comm    | 118.66     | 166.59     | 214.86     | 213.6 | 20.80
Output  | 0.022367   | 0.02391    | 0.027962   |   0.9 |  0.00
Modify  | 37.797     | 83.553     | 126.68     | 299.5 | 10.43
Other   |            | 13.89      |            |       |  1.73

Nlocal:    6050 ave 6109 max 5991 min
Histogram: 2 1 3 6 4 5 3 4 3 1
Nghost:    5892.5 ave 5952 max 5834 min
Histogram: 1 3 4 3 5 4 6 3 1 2
Neighs:    0 ave 0 max 0 min
Histogram: 32 0 0 0 0 0 0 0 0 0
FullNghs:  207263 ave 209459 max 205188 min
Histogram: 2 1 5 4 5 4 5 3 2 1

Total # of neighbors = 6632414
Ave neighs/atom = 34.2583
Neighbor list builds = 0
Dangerous builds = 0
velocity	all scale $T
velocity	all scale 300
unfix		NVT

fix		NVE all nve
fix		hot all langevin ${thi} ${thi} ${tdamp} 389516 tally yes
fix		hot all langevin 319.9225 ${thi} ${tdamp} 389516 tally yes
fix		hot all langevin 319.9225 319.9225 ${tdamp} 389516 tally yes
fix		hot all langevin 319.9225 319.9225 0.05 389516 tally yes
fix_modify	hot temp Thot
fix		cold all langevin ${tlo} ${tlo} ${tdamp} 46579 tally yes
fix		cold all langevin 280.0775 ${tlo} ${tdamp} 46579 tally yes
fix		cold all langevin 280.0775 280.0775 ${tdamp} 46579 tally yes
fix		cold all langevin 280.0775 280.0775 0.05 46579 tally yes
fix_modify	cold temp Tcold

thermo_style	custom step temp c_Thot c_Tcold f_hot f_cold
run		${t1nve}
run		100000
Per MPI rank memory allocation (min/avg/max) = 4.868 | 4.869 | 4.871 Mbytes
Step Temp c_Thot c_Tcold f_hot f_cold 
   45001          300    296.78276    303.71253           -0           -0 
   46000    300.30959     315.2357    284.78466   -69.787276    80.524341 
   47000    300.89166     319.6807    278.85833   -100.90895    109.90912 
   48000    301.08196    318.01733    282.59424   -124.47033    124.10249 
   49000    299.84405    319.68088    279.28855   -145.53721    147.55358 
   50000    300.80079    320.39086    277.79458   -170.95481    177.94916 
   51000    300.08955    319.23135    284.22823   -194.31486     195.4158 
   52000    300.37658    319.43514    283.70312   -212.61986    228.61699 
   53000    300.02423    322.83972    279.82961   -255.95761    268.46652 
   54000    300.33601    323.49669    279.70683   -296.13329    294.14447 
   55000    300.26966    318.08833    280.86275   -324.42373    331.05918 
   56000     299.8791    317.50159    280.42751   -366.16863    364.77577 
   57000    299.91854    316.61202    279.68727   -397.42256    397.54692 
   58000    300.92522    320.36066    284.88123   -435.40004    427.85087 
   59000    300.75561    318.07112      277.084   -472.24271    474.67822 
   60000    300.59255    318.45758    283.13643   -511.61234    504.74694 
   61000    300.56213    318.57247    282.77812   -546.69293    542.97185 
   62000    300.24596    312.01422    281.83563    -575.3598    580.36885 
   63000     300.1277    315.17766    282.04423   -623.43292    613.46113 
   64000    300.97451    318.69745    286.75559   -671.61507    644.76348 
   65000    300.75652    319.96565    280.77564   -711.90704    690.02409 
   66000    300.37359    317.40187    280.28454   -731.56832    732.17817 
   67000    300.27319    317.99228    285.21578   -766.78197    771.09992 
   68000    300.55931    316.98955    282.00974   -809.45367    805.26726 
   69000    300.40864    322.00413    276.56998    -859.9631    847.82364 
   70000    300.93583    320.60257    283.32915   -896.94674    880.92866 
   71000     300.3644    321.40715    281.34253   -944.11131    921.58576 
   72000    300.63316    312.93901    282.60679    -971.9576    958.59142 
   73000    300.79294    322.02173    282.99994   -1015.7774    1000.2463 
   74000    300.85061    318.42508    284.89662   -1055.9989    1045.9855 
   75000    299.93142    316.19796    281.96154   -1079.2181    1093.8859 
   76000     299.6539    319.65753    281.35001   -1129.6211    1139.7528 
   77000    300.77546    318.85584    282.28979   -1160.2956    1177.8741 
   78000    300.04796    313.46962    279.76928   -1193.0347    1227.1298 
   79000    300.02353    322.54805    281.94352   -1244.5581    1261.0647 
   80000    300.44121    320.39474    281.84217   -1286.7279    1299.1998 
   81000    300.75739    317.07785    284.87042   -1326.4057    1336.5966 
   82000    300.81041    318.73007    277.72295   -1380.7061    1380.6056 
   83000    300.45354    320.34324    284.24942   -1417.5583    1431.2716 
   84000    300.03818    320.89833    281.21537   -1454.9204    1468.8703 
   85000    299.54155    322.21815    280.88176   -1495.7083    1495.6943 
   86000     299.6996    320.54808    282.31144   -1523.9407    1533.9409 
   87000    299.81406    322.18427    282.30773   -1579.7906    1569.9844 
   88000    300.18398    317.05326    283.10285   -1602.0317    1608.4353 
   89000    300.97418     319.1626    283.55062   -1644.3074    1643.1872 
   90000    300.44472    318.49688    281.27828   -1674.4224    1687.8733 
   91000    299.85858    318.39684    282.31379   -1704.4649    1722.9269 
   92000    300.86003     317.9374    282.98263   -1743.2599    1759.8598 
   93000    299.64755    313.26307    280.65858   -1778.9212    1799.1163 
   94000    300.63349    319.81205    284.40111   -1829.6133    1834.5035 
   95000    300.20667    316.68367    282.19967   -1861.9987    1868.5663 
   96000    300.19723    318.03792      280.906   -1899.7265    1909.9887 
   97000    299.91226    320.84634      282.698   -1932.6072     1949.722 
   98000    299.72178    319.70737    277.30579   -1964.5796    2008.3744 
   99000    299.63862    314.84333    283.18151   -2005.5575    2038.7822 
  100000    299.70083    321.04518    279.49168    -2045.149    2092.8964 
  101000    299.32937    317.22424    283.07918   -2065.4517    2124.5709 
  102000    299.22024    319.40803     281.8909   -2115.3939    2163.0072 
  103000    299.41487    316.74948    276.89475   -2155.6091     2201.467 
  104000    299.50214    318.93039     285.0033   -2202.8014     2239.438 
  105000    300.22602    316.91113    277.80613   -2232.4812    2282.1167 
  106000    299.82676    326.30193    279.09086   -2290.7318    2316.9776 
  107000    299.70608     314.8935    280.06076   -2314.2791    2344.7184 
  108000     299.9911     316.9076     282.3861   -2355.2702    2385.3618 
  109000    299.99176    319.60552     279.2091   -2400.7474    2426.8965 
  110000    301.00342    321.49973     285.5052   -2445.6911    2451.5143 
  111000    299.08267    318.75324    279.95194    -2486.248    2501.6609 
  112000    300.45313    319.86254    279.51815   -2535.0123       2546.6 
  113000    299.87241    316.97817    281.54022   -2566.0971    2587.6252 
  114000    300.63451    320.49724    282.08751   -2608.9873    2619.2841 
  115000    299.63956    318.38782    278.30646   -2642.7693    2679.8826 
  116000    299.25781    318.47866    283.42269   -2683.4144    2708.6028 
  117000    299.60056    320.24422    281.98615   -2729.9948    2751.2856 
  118000    299.89576    321.10784    275.59079   -2763.4133    2800.8609 
  119000    298.97675    319.27194    280.54234   -2806.3894    2834.5249 
  120000    299.94019    319.39104    279.65692   -2837.6211     2878.237 
  121000    300.10193    321.72505    278.01834   -2887.5141    2918.2929 
  122000    299.72505    317.50146    281.48128   -2925.4838    2950.9689 
  123000    299.77833    318.59163    279.42837   -2968.9888     2993.038 
  124000    300.06406    318.46703    279.68173    -3001.677    3034.1768 
  125000    299.15984    313.95155    274.07536   -3045.0865    3088.3867 
  126000    300.05354     318.5414     283.0732    -3087.062     3105.933 
  127000    300.09003    318.03168    282.76031   -3119.2545    3153.0689 
  128000    299.66349     318.1489     280.8999   -3162.4334    3198.2052 
  129000    299.67543    317.82593    279.17806   -3203.3838    3225.4519 
  130000     299.7446    321.36772    282.88054   -3240.9838    3273.1909 
  131000    297.90552    309.84489    280.03404   -3269.4888    3321.9999 
  132000    299.48096    315.27332    283.84892   -3305.0471      3353.08 
  133000    300.81404    321.68518    284.66768   -3353.5559    3384.4314 
  134000    299.72919    317.07651    284.33184   -3380.0643    3422.7155 
  135000    299.42051    321.16019    280.43495   -3422.0165    3461.6331 
  136000    299.86852    321.63471    278.24461   -3460.5232    3502.6296 
  137000    299.25614    319.64097    277.53125    -3510.326     3556.211 
  138000    299.94634    317.36072    280.44419   -3550.1642    3591.8582 
  139000    299.20274    315.90756    279.39841   -3574.8297    3630.4822 
  140000    299.58352    321.17651    282.13268   -3617.4905    3672.5981 
  141000    299.29396    316.14518    284.13471   -3653.8911    3704.6483 
  142000    299.81964    321.28994    279.34748   -3701.3109    3740.1281 
  143000    299.70385    313.56592    279.04445   -3729.5032    3773.3971 
  144000    299.01676    318.16996    282.07356   -3772.6592    3804.9514 
  145000    298.94103    315.57968    278.65229   -3814.7562    3862.2883 
  145001    298.97645    315.81456    278.65615   -3814.9797    3862.3717 
Loop time of 2113.49 on 32 procs for 100000 steps with 193600 atoms

Performance: 2.044 ns/day, 11.742 hours/ns, 47.315 timesteps/s
82.6% CPU use with 32 MPI tasks x no OpenMP threads

MPI task timing breakdown:
Section |  min time  |  avg time  |  max time  |%varavg| %total
---------------------------------------------------------------
Pair    | 1321.5     | 1342       | 1379       |  33.6 | 63.50
Neigh   | 0          | 0          | 0          |   0.0 |  0.00
Comm    | 283.49     | 410.84     | 522.72     | 341.0 | 19.44
Output  | 0.093044   | 0.10142    | 0.10504    |   1.0 |  0.00
Modify  | 222.93     | 329.09     | 437.23     | 379.2 | 15.57
Other   |            | 31.44      |            |       |  1.49

Nlocal:    6050 ave 6108 max 6007 min
Histogram: 3 1 7 5 3 4 5 3 0 1
Nghost:    5892.5 ave 5935 max 5835 min
Histogram: 1 0 3 4 5 2 5 7 2 3
Neighs:    0 ave 0 max 0 min
Histogram: 32 0 0 0 0 0 0 0 0 0
FullNghs:  207302 ave 209341 max 205796 min
Histogram: 3 2 6 6 2 5 4 2 1 1

Total # of neighbors = 6633650
Ave neighs/atom = 34.2647
Neighbor list builds = 0
Dangerous builds = 0

# thermal conductivity calculation
# reset langevin thermostats to zero energy accumulation
reset_timestep 0
thermo		$c
thermo		500000
compute		ke all ke/atom
variable	temp atom c_ke/1.5/8.617332478e-5
fix		hot all langevin ${thi} ${thi} ${tdamp} 389516 tally yes
fix		hot all langevin 319.9225 ${thi} ${tdamp} 389516 tally yes
fix		hot all langevin 319.9225 319.9225 ${tdamp} 389516 tally yes
fix		hot all langevin 319.9225 319.9225 0.05 389516 tally yes
fix_modify	hot temp Thot
fix		cold all langevin ${tlo} ${tlo} ${tdamp} 46579 tally yes
fix		cold all langevin 280.0775 ${tlo} ${tdamp} 46579 tally yes
fix		cold all langevin 280.0775 280.0775 ${tdamp} 46579 tally yes
fix		cold all langevin 280.0775 280.0775 0.05 46579 tally yes
fix_modify	cold temp Tcold

compute		ch all chunk/atom bin/1d x lower 0.02 units reduced
fix		11 all ave/chunk $a $b $c ch v_temp file sw_${P}.langevin
fix		11 all ave/chunk 100 $b $c ch v_temp file sw_${P}.langevin
fix		11 all ave/chunk 100 5000 $c ch v_temp file sw_${P}.langevin
fix		11 all ave/chunk 100 5000 500000 ch v_temp file sw_${P}.langevin
fix		11 all ave/chunk 100 5000 500000 ch v_temp file sw_18.langevin
thermo_style	custom step temp c_Thot c_Tcold f_hot f_cold

run		${t2nve}
run		500000
Per MPI rank memory allocation (min/avg/max) = 5.118 | 5.12 | 5.121 Mbytes
Step Temp c_Thot c_Tcold f_hot f_cold 
       0    298.97645    316.32424    278.68006           -0           -0 
  500000     298.8652    315.08124    282.04936   -19795.849    19811.353 
Loop time of 10590.7 on 32 procs for 500000 steps with 193600 atoms

Performance: 2.040 ns/day, 11.767 hours/ns, 47.211 timesteps/s
82.5% CPU use with 32 MPI tasks x no OpenMP threads

MPI task timing breakdown:
Section |  min time  |  avg time  |  max time  |%varavg| %total
---------------------------------------------------------------
Pair    | 6612.3     | 6706.2     | 6851       |  61.5 | 63.32
Neigh   | 0          | 0          | 0          |   0.0 |  0.00
Comm    | 1458.4     | 2041       | 2570.5     | 767.7 | 19.27
Output  | 0.000854   | 0.0017961  | 0.001892   |   0.4 |  0.00
Modify  | 1147.7     | 1691.2     | 2215.5     | 854.2 | 15.97
Other   |            | 152.4      |            |       |  1.44

Nlocal:    6050 ave 6075 max 6015 min
Histogram: 1 2 1 1 5 6 6 4 2 4
Nghost:    5892.31 ave 5928 max 5867 min
Histogram: 4 3 2 6 7 5 1 1 2 1
Neighs:    0 ave 0 max 0 min
Histogram: 32 0 0 0 0 0 0 0 0 0
FullNghs:  207302 ave 208244 max 206066 min
Histogram: 2 1 1 1 7 6 5 4 1 4

Total # of neighbors = 6633656
Ave neighs/atom = 34.2648
Neighbor list builds = 0
Dangerous builds = 0
clear
next		P
jump		Si.in
 units       metal
#----------------------------- User Input Variables --------------------------------------
################### Geometrical Parameters ###############################
variable	P index 17 18 19 20
variable	W equal 22
# Lattice Constant
variable	LC equal 5.43
# Length
variable	L equal 50
# Width
#variable	W equal 6
# Height
variable	H equal ${W}
variable	H equal 22
################### Simulation Condition ###############################
#DT/DX=cte
variable	cte equal 1.5938
log         sw_${P}.log
log         sw_19.log
