# temperature
variable	T equal 300
#cold region temperature
#variable        tlo equal 275
variable        tlo equal ${T}-${L}*${cte}/4.0
variable        tlo equal 300-${L}*${cte}/4.0
variable        tlo equal 300-50*${cte}/4.0
variable        tlo equal 300-50*1.5938/4.0
#hot region temperature
#variable        thi equal ${cte}*${L}/2+${tlo}
variable        thi equal ${T}+${L}*${cte}/4.0
variable        thi equal 300+${L}*${cte}/4.0
variable        thi equal 300+50*${cte}/4.0
variable        thi equal 300+50*1.5938/4.0

#time step (picoseconds)
variable	dt equal 0.0005 # 0.5 femtoseconds
#number of time steps for NPT
variable	tnpt equal 5000
#number of time steps for NVT
variable	tnvt equal 40000
#number of time steps for first NVE
variable	t1nve equal 100000
#number of time steps for second NVE
variable	t2nve equal 500000

################### Variable Based on LAMMPS Documentation ######################
variable	a equal 100
variable	c equal ${t2nve}
variable	c equal 500000
variable	b equal $c/$a
variable	b equal 500000/$a
variable	b equal 500000/100
variable	tdamp equal ${dt}*100
variable	tdamp equal 0.0005*100
variable	pdamp equal ${dt}*1000
variable	pdamp equal 0.0005*1000

#----------------------------------------------------------------------------------------
# setup problem
dimension       3
boundary        p p p
atom_style      atomic
lattice 	diamond ${LC} origin 0.0 0.0 0.0 orient x 1 0 0 orient y 0 1 0 orient z 0 0 1
lattice 	diamond 5.43 origin 0.0 0.0 0.0 orient x 1 0 0 orient y 0 1 0 orient z 0 0 1
Lattice spacing in x,y,z = 5.43 5.43 5.43
region          0 block 0 $L 0 $W 0 $H units lattice side in
region          0 block 0 50 0 $W 0 $H units lattice side in
region          0 block 0 50 0 22 0 $H units lattice side in
region          0 block 0 50 0 22 0 22 units lattice side in
create_box      1 0
Created orthogonal box = (0 0 0) to (271.5 119.46 119.46)
  8 by 2 by 2 MPI processor grid
create_atoms    1 region 0
Created 193600 atoms
mass		1 28.0855
#dump		1 all xyz 1000 Si_W_${W}nm.xyz
#dump_modify	1 element Si

############################################
pair_style   sw
pair_coeff   * * Si${P}.sw Si
pair_coeff   * * Si14.sw Si
thermo		100
thermo_style custom step lx
min_style cg
minimize 0.0 1.0e-8 10000 100000
WARNING: Using 'neigh_modify every 1 delay 0 check yes' setting during minimization (../min.cpp:168)
Neighbor list info ...
  update every 1 steps, delay 0 steps, check yes
  max neighbors/atom: 2000, page size: 100000
  master list distance cutoff = 6.13232
  ghost atom cutoff = 6.13232
  binsize = 3.06616, bins = 89 39 39
  1 neighbor lists, perpetual/occasional/extra = 1 0 0
  (1) pair sw, perpetual
      attributes: full, newton on
      pair build: full/bin/atomonly
      stencil: full/bin/3d
      bin: standard
Per MPI rank memory allocation (min/avg/max) = 5.23 | 5.23 | 5.23 Mbytes
Step Lx 
       0        271.5 
       1        271.5 
Loop time of 0.384528 on 32 procs for 1 steps with 193600 atoms

84.3% CPU use with 32 MPI tasks x no OpenMP threads

Minimization stats:
  Stopping criterion = force tolerance
  Energy initial, next-to-last, final = 
        -1140196.53659     -1140196.53659     -1140196.53659
  Force two-norm initial, final = 9.35594e-11 9.35506e-11
  Force max component initial, final = 4.5261e-13 4.58328e-13
  Final line search alpha, max atom move = 1 4.58328e-13
  Iterations, force evaluations = 1 2

MPI task timing breakdown:
Section |  min time  |  avg time  |  max time  |%varavg| %total
---------------------------------------------------------------
Pair    | 0.28518    | 0.29109    | 0.38139    |   3.0 | 75.70
Neigh   | 0          | 0          | 0          |   0.0 |  0.00
Comm    | 0.000807   | 0.05089    | 0.097057   |  17.9 | 13.23
Output  | 0          | 0          | 0          |   0.0 |  0.00
Modify  | 0          | 0          | 0          |   0.0 |  0.00
Other   |            | 0.04254    |            |       | 11.06

Nlocal:    6050 ave 6050 max 6050 min
Histogram: 32 0 0 0 0 0 0 0 0 0
Nghost:    5892.5 ave 5893 max 5892 min
Histogram: 16 0 0 0 0 0 0 0 0 16
Neighs:    0 ave 0 max 0 min
Histogram: 32 0 0 0 0 0 0 0 0 0
FullNghs:  278300 ave 278300 max 278300 min
Histogram: 32 0 0 0 0 0 0 0 0 0

Total # of neighbors = 8905600
Ave neighs/atom = 46
Neighbor list builds = 0
Dangerous builds = 0
timestep     ${dt}
timestep     0.0005
velocity 	all create $T 492845
velocity 	all create 300 492845


fix 		NPT all npt temp $T $T ${tdamp} iso 0.0 0.0 ${pdamp}
fix 		NPT all npt temp 300 $T ${tdamp} iso 0.0 0.0 ${pdamp}
fix 		NPT all npt temp 300 300 ${tdamp} iso 0.0 0.0 ${pdamp}
fix 		NPT all npt temp 300 300 0.05 iso 0.0 0.0 ${pdamp}
fix 		NPT all npt temp 300 300 0.05 iso 0.0 0.0 0.5
thermo		100
thermo_style custom step lx press
run		${tnpt}
run		5000
Per MPI rank memory allocation (min/avg/max) = 4.105 | 4.105 | 4.105 Mbytes
Step Lx Press 
       1        271.5    50373.272 
     100    275.48768      40392.4 
     200    278.44412    31249.294 
     300     280.8139    16939.531 
     400    282.38598    8056.9612 
     500    283.25908    2218.2533 
     600    283.51565    356.57188 
     700    283.53415   -10.503393 
     800    283.47006   -127.25688 
     900    283.47422   -326.19545 
    1000    283.42381   -26.974552 
    1100    283.40607    74.505982 
    1200    283.39416   -22.568423 
    1300     283.3996   -11.507966 
    1400    283.40801   -14.907247 
    1500    283.43069   -19.659661 
    1600    283.43994    10.004653 
    1700    283.44669    31.240064 
    1800    283.44421   -61.593011 
    1900    283.43065     58.99396 
    2000    283.43116    51.694647 
    2100    283.44876    4.5473381 
    2200     283.4607    23.788316 
    2300    283.46608    56.322455 
    2400     283.4795   -13.244662 
    2500     283.4631     30.01211 
    2600    283.46205   -12.687635 
    2700    283.47219   -12.750294 
    2800    283.47954    45.123386 
    2900    283.47578   -33.264503 
    3000    283.49076     81.32232 
    3100    283.49112   -71.247176 
    3200    283.48469    43.345223 
    3300    283.48039   -2.7305091 
    3400     283.5021    8.2515324 
    3500    283.48473    56.317844 
    3600    283.52254   -111.52138 
    3700    283.50223    61.810255 
    3800    283.51669   -67.265181 
    3900    283.49451    29.002265 
    4000    283.51021   -8.9156087 
    4100    283.51072    8.7003016 
    4200    283.51571    3.3242338 
    4300    283.52287    13.872967 
    4400    283.52566   -32.781718 
    4500     283.5187    29.917783 
    4600    283.53267   -79.577732 
    4700     283.5079    101.62484 
    4800    283.53167   -85.019393 
    4900    283.52215    68.027964 
    5000    283.54026   -59.488894 
    5001    283.53988   -57.183975 
Loop time of 496.349 on 32 procs for 5000 steps with 193600 atoms

Performance: 0.435 ns/day, 55.150 hours/ns, 10.074 timesteps/s
92.1% CPU use with 32 MPI tasks x no OpenMP threads

MPI task timing breakdown:
Section |  min time  |  avg time  |  max time  |%varavg| %total
---------------------------------------------------------------
Pair    | 428.54     | 434.82     | 440.72     |  13.0 | 87.60
Neigh   | 0.24232    | 0.24532    | 0.2544     |   0.6 |  0.05
Comm    | 23.559     | 35.355     | 44.413     |  92.3 |  7.12
Output  | 0.028078   | 0.033091   | 0.03628    |   1.6 |  0.01
Modify  | 16.172     | 24.924     | 35.947     | 110.0 |  5.02
Other   |            | 0.9674     |            |       |  0.19

Nlocal:    6050 ave 6096 max 6001 min
Histogram: 2 2 6 1 4 3 2 7 2 3
Nghost:    5892.5 ave 5942 max 5846 min
Histogram: 3 2 7 2 3 4 2 4 3 2
Neighs:    0 ave 0 max 0 min
Histogram: 32 0 0 0 0 0 0 0 0 0
FullNghs:  226153 ave 228472 max 223793 min
Histogram: 2 5 3 2 2 4 5 5 0 4

Total # of neighbors = 7236900
Ave neighs/atom = 37.3807
Neighbor list builds = 16
Dangerous builds = 0
unfix		NPT
variable	length equal lx/${LC}
variable	length equal lx/5.43

################### Geometrical Parameters After Relaxation ###############################
# Thermostat_width
variable	TW equal ${length}/40
variable	TW equal 52.2172890957605/40
# Hot_Start
variable	hs equal ${length}/4-${TW}
variable	hs equal 52.2172890957605/4-${TW}
variable	hs equal 52.2172890957605/4-1.30543222739401
# Hot_End
variable	he equal ${length}/4+${TW}
variable	he equal 52.2172890957605/4+${TW}
variable	he equal 52.2172890957605/4+1.30543222739401
# Cold_Start
variable	cs equal 3*${length}/4-${TW}
variable	cs equal 3*52.2172890957605/4-${TW}
variable	cs equal 3*52.2172890957605/4-1.30543222739401
# Cold_End
variable	ce equal 3*${length}/4+${TW}
variable	ce equal 3*52.2172890957605/4+${TW}
variable	ce equal 3*52.2172890957605/4+1.30543222739401
###########################################################################################

################### Defining Thermostat ###################################################
region 		hot block ${hs} ${he} EDGE EDGE EDGE EDGE
region 		hot block 11.7488900465461 ${he} EDGE EDGE EDGE EDGE
region 		hot block 11.7488900465461 14.3597545013341 EDGE EDGE EDGE EDGE
region 		cold block ${cs} ${ce} EDGE EDGE EDGE EDGE
region 		cold block 37.8575345944264 ${ce} EDGE EDGE EDGE EDGE
region 		cold block 37.8575345944264 40.4683990492144 EDGE EDGE EDGE EDGE
group		test region cold
9566 atoms in group test
group		test1 region hot
9570 atoms in group test1
compute		Thot all temp/region hot
compute         Tcold all temp/region cold
###########################################################################################

fix		NVT all nvt temp $T $T ${tdamp}
fix		NVT all nvt temp 300 $T ${tdamp}
fix		NVT all nvt temp 300 300 ${tdamp}
fix		NVT all nvt temp 300 300 0.05
thermo		1000
thermo_style	custom step temp
run		${tnvt}
run		40000
Per MPI rank memory allocation (min/avg/max) = 4.114 | 4.115 | 4.117 Mbytes
Step Temp 
    5001    299.41973 
    6000    299.60349 
    7000    300.04817 
    8000    299.12869 
    9000    298.87843 
   10000    300.52033 
   11000    300.81256 
   12000    300.45841 
   13000    299.47642 
   14000    300.19419 
   15000    300.46991 
   16000    299.39507 
   17000    300.34488 
   18000    299.41656 
   19000    300.11038 
   20000    300.40878 
   21000     299.1394 
   22000    300.58895 
   23000    299.69324 
   24000    300.05498 
   25000    300.24747 
   26000    299.84225 
   27000    300.34645 
   28000    299.68192 
   29000    300.23119 
   30000    299.45532 
   31000    300.77509 
   32000    299.14766 
   33000    301.39851 
   34000    299.82189 
   35000    300.07938 
   36000    299.65962 
   37000    299.73069 
   38000    300.61935 
   39000     299.9492 
   40000    299.72432 
   41000    300.64299 
   42000    300.60277 
   43000    300.32312 
   44000    299.90119 
   45000    300.45919 
   45001    300.47283 
Loop time of 3927.78 on 32 procs for 40000 steps with 193600 atoms

Performance: 0.440 ns/day, 54.553 hours/ns, 10.184 timesteps/s
92.7% CPU use with 32 MPI tasks x no OpenMP threads

MPI task timing breakdown:
Section |  min time  |  avg time  |  max time  |%varavg| %total
---------------------------------------------------------------
Pair    | 3439       | 3474.4     | 3520.9     |  28.5 | 88.46
Neigh   | 0          | 0          | 0          |   0.0 |  0.00
Comm    | 167.82     | 279.39     | 348.19     | 293.4 |  7.11
Output  | 0.023411   | 0.025518   | 0.02858    |   1.0 |  0.00
Modify  | 113.02     | 159.86     | 225.23     | 334.6 |  4.07
Other   |            | 14.06      |            |       |  0.36

Nlocal:    6050 ave 6090 max 5988 min
Histogram: 2 0 1 2 4 7 5 4 2 5
Nghost:    5892.5 ave 5955 max 5852 min
Histogram: 5 2 3 7 6 4 2 1 0 2
Neighs:    0 ave 0 max 0 min
Histogram: 32 0 0 0 0 0 0 0 0 0
FullNghs:  226440 ave 228880 max 223649 min
Histogram: 2 1 3 1 7 7 2 5 3 1

Total # of neighbors = 7246070
Ave neighs/atom = 37.428
Neighbor list builds = 0
Dangerous builds = 0
velocity	all scale $T
velocity	all scale 300
unfix		NVT

fix		NVE all nve
fix		hot all langevin ${thi} ${thi} ${tdamp} 389516 tally yes
fix		hot all langevin 319.9225 ${thi} ${tdamp} 389516 tally yes
fix		hot all langevin 319.9225 319.9225 ${tdamp} 389516 tally yes
fix		hot all langevin 319.9225 319.9225 0.05 389516 tally yes
fix_modify	hot temp Thot
fix		cold all langevin ${tlo} ${tlo} ${tdamp} 46579 tally yes
fix		cold all langevin 280.0775 ${tlo} ${tdamp} 46579 tally yes
fix		cold all langevin 280.0775 280.0775 ${tdamp} 46579 tally yes
fix		cold all langevin 280.0775 280.0775 0.05 46579 tally yes
fix_modify	cold temp Tcold

thermo_style	custom step temp c_Thot c_Tcold f_hot f_cold
run		${t1nve}
run		100000
Per MPI rank memory allocation (min/avg/max) = 4.864 | 4.865 | 4.867 Mbytes
Step Temp c_Thot c_Tcold f_hot f_cold 
   45001          300    304.78812    302.47482           -0           -0 
   46000    300.74641    322.75674    282.95971   -94.353438    79.577932 
   47000     299.5822    322.83175    280.38936   -109.58721    117.11766 
   48000    299.71855    317.08347    277.83495   -120.84334    150.37549 
   49000    299.98947    319.22381    281.19005   -151.60313    173.28117 
   50000    299.86002    316.85935    282.76289    -172.9755    205.70216 
   51000    299.78108    321.18819    280.89093   -204.07751    225.55562 
   52000    300.31701    321.50754    281.98925   -235.06761    252.00034 
   53000    299.80816    317.35474    282.77084   -268.07888    270.00909 
   54000    300.05737    319.36006    282.24358   -296.23669    299.11738 
   55000    300.80235    320.52816    279.19772   -316.19346    321.66926 
   56000    300.22628    322.41152    281.14889   -357.64928    353.30528 
   57000    299.31414    312.84669    280.94388    -363.9032     390.8182 
   58000    300.06508    320.95201    283.21676   -402.35704    419.16554 
   59000    298.53046    318.05001    279.72203    -428.8034     455.3882 
   60000    299.92316    314.94704    281.65741   -454.41505    488.73687 
   61000    299.11599    321.16913    283.39871   -487.71113    513.70222 
   62000    299.42033    319.74303    283.06595   -513.29377    538.90771 
   63000    300.00529    316.90705    280.58515   -545.01594    572.14849 
   64000    299.17286    318.68618     279.8972   -567.71617    603.38978 
   65000    299.54684    321.01151    280.44653   -601.66877    627.93732 
   66000    299.99053    325.15554    278.24005   -624.55052    658.27054 
   67000    299.50035     317.6032    281.21907    -649.1018    681.38864 
   68000    299.87654    319.52013    276.28521   -677.32606    718.10106 
   69000    298.89526    317.18118    282.05823   -705.77696    733.96614 
   70000    299.75879    317.56914     281.3923   -740.51478    777.29228 
   71000    299.67326    318.96774    281.87577   -764.37403    805.59275 
   72000    299.17476    318.20019     280.6893    -795.6814    835.32232 
   73000    299.25822    317.76192    279.26997   -828.74874    857.50157 
   74000    299.86306    317.89961    281.96201   -855.35642     886.2963 
   75000    299.48147    320.60984    287.46688   -884.58917    890.40118 
   76000    300.46586    321.56545    278.30984   -911.87827    929.81328 
   77000    299.97489    318.48287     278.8777   -940.68852    964.20644 
   78000    299.67627    317.00229     280.3712   -960.94914    985.68483 
   79000    300.39629    321.82933    284.14926    -1005.056    1017.4808 
   80000    299.80246    317.04258    281.70143   -1024.7815    1041.6206 
   81000    300.14915    320.70239    284.45923   -1058.9471    1073.9598 
   82000    300.27697      321.604    282.55937   -1081.0184    1100.3562 
   83000    299.72581    317.81976    281.56435   -1105.0277    1135.7392 
   84000    299.27495    316.39218    279.41368   -1132.3568    1175.2776 
   85000    299.79011    315.63477    280.98509   -1150.3678    1194.8192 
   86000    299.18473    318.67482    280.68274   -1188.8965     1215.687 
   87000    299.80604    321.59708    282.98309   -1233.1337    1247.3428 
   88000    299.72381    318.09119    281.83318   -1247.7361    1288.1265 
   89000    299.10518     317.0952    277.38933   -1276.4069    1315.1271 
   90000    299.84818    318.71926    282.50682   -1305.8411    1344.4392 
   91000    299.99874    315.80291    281.35727    -1329.948     1367.244 
   92000    299.37018    318.57474    281.04852   -1370.2954    1396.8471 
   93000    300.04619    316.96204    280.59536   -1409.3726    1424.9607 
   94000    299.91313    321.29144    281.50683   -1440.6697    1462.0247 
   95000    299.56316    317.24147    280.14741   -1465.5905    1495.1579 
   96000    299.57817    317.57605     281.2012   -1489.4247    1518.9453 
   97000     300.3699    321.08991    281.52897   -1513.2448    1547.7085 
   98000    299.09497    319.72952    280.12502   -1548.2267    1569.3815 
   99000    299.25773    315.29718    283.14201   -1558.8776    1598.8149 
  100000    299.44599    319.85942    279.05589   -1598.6737    1627.9136 
  101000    299.50209    319.92587    279.31254   -1627.1177    1664.3401 
  102000    299.27745    315.53143    282.40472   -1651.2825    1689.8812 
  103000    299.74165     318.1579    275.30578   -1690.5269    1725.1147 
  104000    299.74744    319.91991    284.54177   -1719.4389    1747.9308 
  105000    299.33673     319.7377    282.67086   -1745.2721    1777.2844 
  106000    299.60734    321.81228    280.37559   -1781.7165    1803.1596 
  107000    299.40974     321.3434    279.77833   -1796.8664     1840.615 
  108000    299.97438    321.02107    284.71811   -1831.8178    1866.1232 
  109000    299.14489    315.82055    282.54387    -1845.045    1883.0082 
  110000    300.02521    318.11777    277.45869   -1884.1662    1923.5535 
  111000    299.32083    317.07318    279.87769   -1915.3932    1944.7826 
  112000    301.06372    320.63852    284.68583   -1948.1378    1964.1072 
  113000    300.84086    321.78949    286.14511   -1973.9143    1980.8922 
  114000    299.32694    317.97478    283.46559   -1993.6806    2006.6239 
  115000    299.73537    320.07553    280.73603   -2030.7369    2033.8655 
  116000    299.46008    316.19263    281.32917   -2051.2922    2068.0463 
  117000    300.11566    321.81786    279.82031   -2096.2898    2090.0972 
  118000    301.32451    318.32315    283.29776   -2126.0283    2108.4415 
  119000    299.88786    321.96018    282.59044   -2156.2183    2136.9445 
  120000    300.39363     317.8616     282.5217   -2180.1562     2173.457 
  121000    300.25944    320.06827    286.87828   -2215.2989    2198.9826 
  122000    300.50497    319.85876    282.07075   -2238.5523    2234.9995 
  123000    300.15641    319.43756    281.04955   -2267.5378    2264.4674 
  124000    300.03487    318.91599    282.72013   -2291.8211    2276.8125 
  125000    300.54807    318.11325    282.13442   -2318.2413    2312.5439 
  126000    300.60453    319.52595    280.10269   -2352.5362     2335.733 
  127000    300.50058     319.4249    284.99932   -2364.7697    2356.9974 
  128000     299.9324    318.97834    281.65566   -2404.1942    2399.3039 
  129000    300.10611     319.7195    283.18533   -2427.0697    2421.7398 
  130000    300.15604    322.61509    278.74635   -2455.1154    2451.6514 
  131000    299.57492    318.62863    277.61348   -2464.3476    2481.8664 
  132000    299.25226     316.1238    287.54161   -2486.6433    2506.4438 
  133000    299.61079     316.7698     281.8925   -2516.4822    2539.2447 
  134000    299.96448    317.64326    280.59046   -2552.8916    2576.5522 
  135000    298.70012    319.62021    280.43505   -2582.4522    2611.4711 
  136000    298.85074    312.93337    280.98512   -2606.4135    2643.0696 
  137000    299.17003    320.22522    278.74272   -2640.5093    2679.9325 
  138000    299.51067    319.78218    280.94705   -2669.4127    2704.7324 
  139000    299.57217    317.30602    279.57178    -2702.527    2731.5839 
  140000    300.61741    319.79962    279.20317   -2747.8415    2763.0392 
  141000    300.43002    317.61218    282.86332   -2763.8891    2779.8298 
  142000     299.5463    316.91477    279.55681    -2791.648    2816.0182 
  143000     299.7572    318.44122    281.07185   -2824.1715    2836.7471 
  144000    299.26794    318.40344    282.54381   -2847.4271    2860.3818 
  145000    299.92746    320.38618    279.14071    -2880.031    2896.7978 
  145001    299.97536    320.06143    279.80465   -2879.6413    2895.8651 
Loop time of 9973.74 on 32 procs for 100000 steps with 193600 atoms

Performance: 0.433 ns/day, 55.410 hours/ns, 10.026 timesteps/s
92.4% CPU use with 32 MPI tasks x no OpenMP threads

MPI task timing breakdown:
Section |  min time  |  avg time  |  max time  |%varavg| %total
---------------------------------------------------------------
Pair    | 8604.5     | 8704.3     | 8801.5     |  51.7 | 87.27
Neigh   | 0          | 0          | 0          |   0.0 |  0.00
Comm    | 454.46     | 713.22     | 929.36     | 456.2 |  7.15
Output  | 0.10294    | 0.10605    | 0.10887    |   0.5 |  0.00
Modify  | 403.52     | 528.07     | 694.38     | 447.8 |  5.29
Other   |            | 28.07      |            |       |  0.28

Nlocal:    6050 ave 6092 max 6007 min
Histogram: 1 2 4 6 4 3 4 2 5 1
Nghost:    5892.5 ave 5936 max 5850 min
Histogram: 1 5 2 4 3 4 6 4 2 1
Neighs:    0 ave 0 max 0 min
Histogram: 32 0 0 0 0 0 0 0 0 0
FullNghs:  226003 ave 227619 max 223882 min
Histogram: 1 1 2 6 4 5 2 3 3 5

Total # of neighbors = 7232094
Ave neighs/atom = 37.3559
Neighbor list builds = 0
Dangerous builds = 0

# thermal conductivity calculation
# reset langevin thermostats to zero energy accumulation
reset_timestep 0
thermo		$c
thermo		500000
compute		ke all ke/atom
variable	temp atom c_ke/1.5/8.617332478e-5
fix		hot all langevin ${thi} ${thi} ${tdamp} 389516 tally yes
fix		hot all langevin 319.9225 ${thi} ${tdamp} 389516 tally yes
fix		hot all langevin 319.9225 319.9225 ${tdamp} 389516 tally yes
fix		hot all langevin 319.9225 319.9225 0.05 389516 tally yes
fix_modify	hot temp Thot
fix		cold all langevin ${tlo} ${tlo} ${tdamp} 46579 tally yes
fix		cold all langevin 280.0775 ${tlo} ${tdamp} 46579 tally yes
fix		cold all langevin 280.0775 280.0775 ${tdamp} 46579 tally yes
fix		cold all langevin 280.0775 280.0775 0.05 46579 tally yes
fix_modify	cold temp Tcold

compute		ch all chunk/atom bin/1d x lower 0.02 units reduced
fix		11 all ave/chunk $a $b $c ch v_temp file sw_${P}.langevin
fix		11 all ave/chunk 100 $b $c ch v_temp file sw_${P}.langevin
fix		11 all ave/chunk 100 5000 $c ch v_temp file sw_${P}.langevin
fix		11 all ave/chunk 100 5000 500000 ch v_temp file sw_${P}.langevin
fix		11 all ave/chunk 100 5000 500000 ch v_temp file sw_14.langevin
thermo_style	custom step temp c_Thot c_Tcold f_hot f_cold

run		${t2nve}
run		500000
Per MPI rank memory allocation (min/avg/max) = 5.115 | 5.115 | 5.117 Mbytes
Step Temp c_Thot c_Tcold f_hot f_cold 
       0    299.97536    319.98686    279.81809           -0           -0 
  500000    299.65058    319.55044    278.61326    -14273.29    14246.097 
Loop time of 49684.7 on 32 procs for 500000 steps with 193600 atoms

Performance: 0.435 ns/day, 55.205 hours/ns, 10.063 timesteps/s
92.6% CPU use with 32 MPI tasks x no OpenMP threads

MPI task timing breakdown:
Section |  min time  |  avg time  |  max time  |%varavg| %total
---------------------------------------------------------------
Pair    | 42982      | 43505      | 44025      | 117.5 | 87.56
Neigh   | 0          | 0          | 0          |   0.0 |  0.00
Comm    | 2465.7     | 3488.2     | 4448.5     | 922.4 |  7.02
Output  | 0.032009   | 0.034208   | 0.034961   |   0.4 |  0.00
Modify  | 1874.9     | 2547.1     | 3294.1     | 994.4 |  5.13
Other   |            | 144.8      |            |       |  0.29

Nlocal:    6050 ave 6122 max 5987 min
Histogram: 2 2 2 4 6 8 5 2 0 1
Nghost:    5892.5 ave 5955 max 5820 min
Histogram: 1 0 2 3 10 6 4 2 2 2
Neighs:    0 ave 0 max 0 min
Histogram: 32 0 0 0 0 0 0 0 0 0
FullNghs:  225960 ave 228708 max 222763 min
Histogram: 2 1 1 3 5 4 10 3 2 1

Total # of neighbors = 7230736
Ave neighs/atom = 37.3488
Neighbor list builds = 0
Dangerous builds = 0
clear
next		P
jump		Si.in
 units       metal
#----------------------------- User Input Variables --------------------------------------
################### Geometrical Parameters ###############################
variable	P index 13 14 15 16
variable	W equal 22
# Lattice Constant
variable	LC equal 5.43
# Length
variable	L equal 50
# Width
#variable	W equal 6
# Height
variable	H equal ${W}
variable	H equal 22
################### Simulation Condition ###############################
#DT/DX=cte
variable	cte equal 1.5938
log         sw_${P}.log
log         sw_15.log
