# temperature
variable	T equal 300
#cold region temperature
#variable        tlo equal 275
variable        tlo equal ${T}-${L}*${cte}/4.0
variable        tlo equal 300-${L}*${cte}/4.0
variable        tlo equal 300-50*${cte}/4.0
variable        tlo equal 300-50*1.5938/4.0
#hot region temperature
#variable        thi equal ${cte}*${L}/2+${tlo}
variable        thi equal ${T}+${L}*${cte}/4.0
variable        thi equal 300+${L}*${cte}/4.0
variable        thi equal 300+50*${cte}/4.0
variable        thi equal 300+50*1.5938/4.0

#time step (picoseconds)
variable	dt equal 0.0005 # 0.5 femtoseconds
#number of time steps for NPT
variable	tnpt equal 5000
#number of time steps for NVT
variable	tnvt equal 40000
#number of time steps for first NVE
variable	t1nve equal 100000
#number of time steps for second NVE
variable	t2nve equal 500000

################### Variable Based on LAMMPS Documentation ######################
variable	a equal 100
variable	c equal ${t2nve}
variable	c equal 500000
variable	b equal $c/$a
variable	b equal 500000/$a
variable	b equal 500000/100
variable	tdamp equal ${dt}*100
variable	tdamp equal 0.0005*100
variable	pdamp equal ${dt}*1000
variable	pdamp equal 0.0005*1000

#----------------------------------------------------------------------------------------
# setup problem
dimension       3
boundary        p p p
atom_style      atomic
lattice 	diamond ${LC} origin 0.0 0.0 0.0 orient x 1 0 0 orient y 0 1 0 orient z 0 0 1
lattice 	diamond 5.43 origin 0.0 0.0 0.0 orient x 1 0 0 orient y 0 1 0 orient z 0 0 1
Lattice spacing in x,y,z = 5.43 5.43 5.43
region          0 block 0 $L 0 $W 0 $H units lattice side in
region          0 block 0 50 0 $W 0 $H units lattice side in
region          0 block 0 50 0 22 0 $H units lattice side in
region          0 block 0 50 0 22 0 22 units lattice side in
create_box      1 0
Created orthogonal box = (0 0 0) to (271.5 119.46 119.46)
  8 by 2 by 2 MPI processor grid
create_atoms    1 region 0
Created 193600 atoms
mass		1 28.0855
#dump		1 all xyz 1000 Si_W_${W}nm.xyz
#dump_modify	1 element Si

############################################
pair_style   sw
pair_coeff   * * Si${P}.sw Si
pair_coeff   * * Si25.sw Si
thermo		100
thermo_style custom step lx
min_style cg
minimize 0.0 1.0e-8 10000 100000
WARNING: Using 'neigh_modify every 1 delay 0 check yes' setting during minimization (../min.cpp:168)
Neighbor list info ...
  update every 1 steps, delay 0 steps, check yes
  max neighbors/atom: 2000, page size: 100000
  master list distance cutoff = 5.98384
  ghost atom cutoff = 5.98384
  binsize = 2.99192, bins = 91 40 40
  1 neighbor lists, perpetual/occasional/extra = 1 0 0
  (1) pair sw, perpetual
      attributes: full, newton on
      pair build: full/bin/atomonly
      stencil: full/bin/3d
      bin: standard
Per MPI rank memory allocation (min/avg/max) = 5.235 | 5.235 | 5.235 Mbytes
Step Lx 
       0        271.5 
       1        271.5 
Loop time of 0.414657 on 32 procs for 1 steps with 193600 atoms

81.0% CPU use with 32 MPI tasks x no OpenMP threads

Minimization stats:
  Stopping criterion = force tolerance
  Energy initial, next-to-last, final = 
        -1004913.11566     -1004913.11566     -1004913.11566
  Force two-norm initial, final = 9.87798e-11 9.87104e-11
  Force max component initial, final = 5.73808e-13 5.7646e-13
  Final line search alpha, max atom move = 1 5.7646e-13
  Iterations, force evaluations = 1 2

MPI task timing breakdown:
Section |  min time  |  avg time  |  max time  |%varavg| %total
---------------------------------------------------------------
Pair    | 0.28676    | 0.2958     | 0.38623    |   3.9 | 71.34
Neigh   | 0          | 0          | 0          |   0.0 |  0.00
Comm    | 0.006893   | 0.087084   | 0.12089    |  12.7 | 21.00
Output  | 0          | 0          | 0          |   0.0 |  0.00
Modify  | 0          | 0          | 0          |   0.0 |  0.00
Other   |            | 0.03177    |            |       |  7.66

Nlocal:    6050 ave 6050 max 6050 min
Histogram: 32 0 0 0 0 0 0 0 0 0
Nghost:    5892.5 ave 5893 max 5892 min
Histogram: 16 0 0 0 0 0 0 0 0 16
Neighs:    0 ave 0 max 0 min
Histogram: 32 0 0 0 0 0 0 0 0 0
FullNghs:  278300 ave 278300 max 278300 min
Histogram: 32 0 0 0 0 0 0 0 0 0

Total # of neighbors = 8905600
Ave neighs/atom = 46
Neighbor list builds = 0
Dangerous builds = 0
timestep     ${dt}
timestep     0.0005
velocity 	all create $T 492845
velocity 	all create 300 492845


fix 		NPT all npt temp $T $T ${tdamp} iso 0.0 0.0 ${pdamp}
fix 		NPT all npt temp 300 $T ${tdamp} iso 0.0 0.0 ${pdamp}
fix 		NPT all npt temp 300 300 ${tdamp} iso 0.0 0.0 ${pdamp}
fix 		NPT all npt temp 300 300 0.05 iso 0.0 0.0 ${pdamp}
fix 		NPT all npt temp 300 300 0.05 iso 0.0 0.0 0.5
thermo		100
thermo_style custom step lx press
run		${tnpt}
run		5000
Per MPI rank memory allocation (min/avg/max) = 4.11 | 4.11 | 4.11 Mbytes
Step Lx Press 
       1        271.5    84088.998 
     100    275.62661    34458.889 
     200    277.88471    12751.282 
     300    278.92459    2425.1546 
     400     279.1893    114.22845 
     500    279.20046   -28.721403 
     600    279.21003    78.250606 
     700    279.22121   -68.537115 
     800    279.23504    25.908134 
     900    279.23724    70.974278 
    1000    279.24617    56.793349 
    1100    279.25917   -33.840179 
    1200    279.26433    7.2599012 
    1300    279.27053   -24.451676 
    1400    279.27298    3.8080601 
    1500     279.2764    4.3375061 
    1600    279.27558   -13.406874 
    1700    279.28066   -43.603337 
    1800    279.27214    41.651833 
    1900    279.27547   0.76278987 
    2000    279.27464   -6.8069437 
    2100     279.2777   -5.4363666 
    2200    279.27534    4.2314372 
    2300    279.27818   -21.896661 
    2400    279.27703   -26.907168 
    2500    279.27887   -8.1233194 
    2600    279.27471   -48.408208 
    2700    279.27088    42.954219 
    2800    279.28008  -0.74353142 
    2900    279.27465   -27.214025 
    3000    279.28109    26.147069 
    3100    279.27195   -2.8718681 
    3200    279.27668    58.527255 
    3300    279.27448   -61.345501 
    3400    279.28384    32.297475 
    3500    279.26174    36.224005 
    3600    279.30159   -150.24705 
    3700     279.2487    191.07417 
    3800    279.30661   -237.26227 
    3900    279.25303    216.49078 
    4000    279.28843   -99.879842 
    4100    279.27285    25.137262 
    4200    279.27993    23.773529 
    4300    279.27412   -3.1428494 
    4400     279.2827   -1.8203061 
    4500    279.26907    24.449469 
    4600    279.28856   -81.600365 
    4700    279.26597    73.996294 
    4800    279.28648   -63.832452 
    4900    279.27033    70.554414 
    5000    279.28438    -38.05454 
    5001     279.2843   -37.155887 
Loop time of 349.089 on 32 procs for 5000 steps with 193600 atoms

Performance: 0.619 ns/day, 38.788 hours/ns, 14.323 timesteps/s
90.3% CPU use with 32 MPI tasks x no OpenMP threads

MPI task timing breakdown:
Section |  min time  |  avg time  |  max time  |%varavg| %total
---------------------------------------------------------------
Pair    | 290.98     | 295        | 300.74     |  13.1 | 84.51
Neigh   | 0.14352    | 0.14575    | 0.15519    |   0.6 |  0.04
Comm    | 22.287     | 32.05      | 42.671     | 102.5 |  9.18
Output  | 0.029205   | 0.0325     | 0.036327   |   1.3 |  0.01
Modify  | 13.069     | 20.852     | 28.33      | 121.4 |  5.97
Other   |            | 1.009      |            |       |  0.29

Nlocal:    6050 ave 6106 max 6008 min
Histogram: 4 2 7 5 3 1 5 1 1 3
Nghost:    5892.5 ave 5934 max 5836 min
Histogram: 3 1 1 5 1 3 3 9 2 4
Neighs:    0 ave 0 max 0 min
Histogram: 32 0 0 0 0 0 0 0 0 0
FullNghs:  211180 ave 213466 max 209649 min
Histogram: 4 3 8 4 2 2 5 0 1 3

Total # of neighbors = 6757756
Ave neighs/atom = 34.9058
Neighbor list builds = 10
Dangerous builds = 0
unfix		NPT
variable	length equal lx/${LC}
variable	length equal lx/5.43

################### Geometrical Parameters After Relaxation ###############################
# Thermostat_width
variable	TW equal ${length}/40
variable	TW equal 51.4335719536199/40
# Hot_Start
variable	hs equal ${length}/4-${TW}
variable	hs equal 51.4335719536199/4-${TW}
variable	hs equal 51.4335719536199/4-1.2858392988405
# Hot_End
variable	he equal ${length}/4+${TW}
variable	he equal 51.4335719536199/4+${TW}
variable	he equal 51.4335719536199/4+1.2858392988405
# Cold_Start
variable	cs equal 3*${length}/4-${TW}
variable	cs equal 3*51.4335719536199/4-${TW}
variable	cs equal 3*51.4335719536199/4-1.2858392988405
# Cold_End
variable	ce equal 3*${length}/4+${TW}
variable	ce equal 3*51.4335719536199/4+${TW}
variable	ce equal 3*51.4335719536199/4+1.2858392988405
###########################################################################################

################### Defining Thermostat ###################################################
region 		hot block ${hs} ${he} EDGE EDGE EDGE EDGE
region 		hot block 11.5725536895645 ${he} EDGE EDGE EDGE EDGE
region 		hot block 11.5725536895645 14.1442322872455 EDGE EDGE EDGE EDGE
region 		cold block ${cs} ${ce} EDGE EDGE EDGE EDGE
region 		cold block 37.2893396663744 ${ce} EDGE EDGE EDGE EDGE
region 		cold block 37.2893396663744 39.8610182640554 EDGE EDGE EDGE EDGE
group		test region cold
9574 atoms in group test
group		test1 region hot
9583 atoms in group test1
compute		Thot all temp/region hot
compute         Tcold all temp/region cold
###########################################################################################

fix		NVT all nvt temp $T $T ${tdamp}
fix		NVT all nvt temp 300 $T ${tdamp}
fix		NVT all nvt temp 300 300 ${tdamp}
fix		NVT all nvt temp 300 300 0.05
thermo		1000
thermo_style	custom step temp
run		${tnvt}
run		40000
Per MPI rank memory allocation (min/avg/max) = 4.118 | 4.119 | 4.121 Mbytes
Step Temp 
    5001    301.77241 
    6000    299.57036 
    7000    299.48274 
    8000    299.31336 
    9000    299.80047 
   10000    301.94446 
   11000    299.99989 
   12000    299.39178 
   13000    299.68305 
   14000    300.88591 
   15000    298.25737 
   16000    300.42988 
   17000    299.26075 
   18000    299.77631 
   19000    299.70077 
   20000    299.62464 
   21000    299.70267 
   22000    298.19366 
   23000    300.18977 
   24000    299.50978 
   25000    299.25888 
   26000    300.02641 
   27000    300.00862 
   28000     300.3745 
   29000    300.06543 
   30000    300.55093 
   31000    300.03364 
   32000    300.66769 
   33000    300.13851 
   34000    299.32298 
   35000    300.52209 
   36000    299.45431 
   37000    300.06404 
   38000    301.08745 
   39000    300.42259 
   40000    300.42552 
   41000    299.51006 
   42000    300.30247 
   43000    300.22258 
   44000    300.20692 
   45000    299.43132 
   45001    299.47711 
Loop time of 2644.2 on 32 procs for 40000 steps with 193600 atoms

Performance: 0.654 ns/day, 36.725 hours/ns, 15.127 timesteps/s
91.0% CPU use with 32 MPI tasks x no OpenMP threads

MPI task timing breakdown:
Section |  min time  |  avg time  |  max time  |%varavg| %total
---------------------------------------------------------------
Pair    | 2245.1     | 2268       | 2308.3     |  29.6 | 85.77
Neigh   | 0          | 0          | 0          |   0.0 |  0.00
Comm    | 150.68     | 235.75     | 316.81     | 277.0 |  8.92
Output  | 0.022594   | 0.024948   | 0.027837   |   1.0 |  0.00
Modify  | 62.113     | 126.02     | 184.98     | 332.0 |  4.77
Other   |            | 14.36      |            |       |  0.54

Nlocal:    6050 ave 6099 max 5979 min
Histogram: 2 1 0 3 1 8 5 6 5 1
Nghost:    5892.5 ave 5964 max 5844 min
Histogram: 1 4 7 5 8 1 3 0 1 2
Neighs:    0 ave 0 max 0 min
Histogram: 32 0 0 0 0 0 0 0 0 0
FullNghs:  213277 ave 215178 max 210423 min
Histogram: 2 1 0 2 2 6 6 8 4 1

Total # of neighbors = 6824872
Ave neighs/atom = 35.2524
Neighbor list builds = 0
Dangerous builds = 0
velocity	all scale $T
velocity	all scale 300
unfix		NVT

fix		NVE all nve
fix		hot all langevin ${thi} ${thi} ${tdamp} 389516 tally yes
fix		hot all langevin 319.9225 ${thi} ${tdamp} 389516 tally yes
fix		hot all langevin 319.9225 319.9225 ${tdamp} 389516 tally yes
fix		hot all langevin 319.9225 319.9225 0.05 389516 tally yes
fix_modify	hot temp Thot
fix		cold all langevin ${tlo} ${tlo} ${tdamp} 46579 tally yes
fix		cold all langevin 280.0775 ${tlo} ${tdamp} 46579 tally yes
fix		cold all langevin 280.0775 280.0775 ${tdamp} 46579 tally yes
fix		cold all langevin 280.0775 280.0775 0.05 46579 tally yes
fix_modify	cold temp Tcold

thermo_style	custom step temp c_Thot c_Tcold f_hot f_cold
run		${t1nve}
run		100000
Per MPI rank memory allocation (min/avg/max) = 4.868 | 4.869 | 4.871 Mbytes
Step Temp c_Thot c_Tcold f_hot f_cold 
   45001          300    297.22773    296.44137           -0           -0 
   46000    299.91274    314.88275    280.35247   -74.429787    69.947303 
   47000    298.55769     316.1719    281.08597   -92.142486    91.233673 
   48000    299.29451    319.70247    279.67557   -121.45489    115.47537 
   49000    300.09961    318.33439    286.92692   -149.00454    129.10158 
   50000    299.65994    320.36471    278.31068   -167.86303     161.2017 
   51000    299.57246    317.97576     283.6304    -173.1885    183.72155 
   52000    299.59459    316.35607    283.10753   -198.26339     214.8295 
   53000    299.16804    320.54679     281.0962    -227.3837    247.81168 
   54000     298.6689    320.06864    282.08669   -261.44272    287.42266 
   55000    299.20458    319.14354    278.44468    -281.3831    312.99517 
   56000    298.34255    318.64941    280.03361   -328.93495    350.59538 
   57000    298.77073    321.54366     278.1726    -360.0049    372.81832 
   58000    299.16462      314.612    280.31756   -380.82727     391.5876 
   59000    299.69623    319.06668    284.23164   -407.29311    418.50929 
   60000    299.60226    320.81962    282.39738   -454.89431    448.40647 
   61000    299.38954    322.42983    278.03594   -487.78031    488.43427 
   62000    299.12064     314.9958    279.66381   -520.14187    529.21513 
   63000    299.59451    322.35762    280.33468   -561.60644    559.18518 
   64000     299.6931    322.02137    278.04386   -600.23739    591.22535 
   65000    299.71687    320.40443    283.03882   -638.33142    620.07623 
   66000    299.62482    314.88594    280.40522    -670.3975    663.50382 
   67000    299.98823     317.8572    279.66489   -694.58494    700.57718 
   68000    299.43932    321.06006    275.64124   -740.51799    732.31506 
   69000    299.93294    321.40562    282.67983    -770.3302    763.39861 
   70000    299.47429     316.8921    280.75241   -802.21239    796.06016 
   71000    298.89203    319.08793    276.66236   -827.01212    843.37696 
   72000    299.22711    315.78882    282.09555   -867.15028    871.82559 
   73000     299.9062    320.97783    283.42568   -906.31416    890.94172 
   74000    300.73088    322.78346    284.13464   -948.09721     932.2606 
   75000    299.49958     318.6421    278.32163   -975.33404     968.7686 
   76000    300.80778    323.28235    281.09025   -1014.9879    1008.5409 
   77000    300.63146    320.13427    283.00551   -1057.0926    1035.6032 
   78000    299.59284    317.40353    278.92787   -1077.9085    1077.5531 
   79000    300.00955    318.52167    283.13628   -1127.5242    1108.4908 
   80000    300.53256    316.73169    285.26418   -1162.4674    1133.2964 
   81000    300.10709    313.58219    285.89288   -1181.6783    1164.0854 
   82000     299.8839    319.11404    280.37357   -1222.7208     1203.635 
   83000    299.70111    316.77446    282.11838   -1262.4944    1227.9961 
   84000    299.21486    317.57622    278.41836   -1291.4927    1262.6526 
   85000    300.40448    316.33148    280.71315   -1332.6507    1294.5591 
   86000    299.89601    318.35473    278.36827   -1367.4193     1324.889 
   87000    300.51032    322.07324     282.2732    -1399.508    1353.5226 
   88000    301.01926      315.653    283.75147   -1429.6075    1388.6951 
   89000    301.12667    323.29315    287.74603   -1471.3343    1422.7342 
   90000    300.31101    325.68079    279.84009   -1518.3216    1459.6201 
   91000    301.20176    320.34595    282.50786   -1545.0451    1493.7631 
   92000    300.18153    315.14202    282.00277   -1572.1981     1525.065 
   93000    300.34954     315.7446    281.25985   -1615.2285    1560.6459 
   94000    300.95778    320.77879    280.04371   -1655.4897    1596.5976 
   95000    300.44311    320.09145     284.9322     -1689.26    1630.5029 
   96000    299.86775      317.622    278.82464   -1716.5467    1667.0925 
   97000    300.85615    320.30947    278.92867   -1753.6563    1707.1487 
   98000     300.3942    318.07553    278.32771    -1788.417    1732.5967 
   99000    300.52026    317.34375    282.45735   -1835.6299    1765.2379 
  100000    300.24225    319.62152    281.53899   -1852.4425      1809.65 
  101000     300.7122    316.95081    283.66494   -1885.1011     1843.437 
  102000    300.54708    321.51782    281.63287   -1930.4868    1873.2908 
  103000    300.60728    322.03516    283.31813    -1961.537    1906.8644 
  104000    301.04686    319.22569    280.31585   -1992.4791    1944.2105 
  105000    300.40413    319.46657    283.33043    -2037.679    1971.3979 
  106000    300.58848    315.41128    286.66911   -2058.8438    2002.2623 
  107000    300.71874    315.84707    281.15884   -2103.2301    2038.0295 
  108000    300.68907    320.35576    280.62938   -2135.9788    2087.5273 
  109000     300.8316    317.03342    282.11441   -2170.2887    2119.9063 
  110000    300.46806    318.83909    282.90469   -2204.7549    2161.6545 
  111000     300.1441    315.84629    281.41105   -2240.9967    2194.7393 
  112000    300.61313     316.5974    282.27142   -2278.8371    2228.7333 
  113000    300.11108    318.14759    279.95673   -2314.1582    2270.9819 
  114000     300.7464    319.25822    285.26239   -2346.9927    2289.8767 
  115000    300.04104    316.98239    281.80757   -2380.1654    2337.0651 
  116000    300.59623    321.25883    280.32825   -2438.0623    2369.0908 
  117000    301.50442    319.72753      280.262   -2473.9047    2406.8392 
  118000    301.53451     320.8353    281.29399   -2504.5287    2437.9524 
  119000     300.9993    320.82846    279.67224    -2542.497     2478.506 
  120000    301.75561    318.56742    281.56267   -2579.2381    2517.1194 
  121000    300.77013    317.75291    281.75296   -2610.5639    2558.8897 
  122000    300.62908    317.32306    280.56235   -2635.6992    2595.5542 
  123000    300.97967    317.10832    283.86789   -2683.6034    2632.8331 
  124000    300.03188    321.55535    282.21078   -2716.1972    2655.8054 
  125000    300.51019    316.81447    281.13167   -2747.2149    2701.0095 
  126000    300.53388    316.29945    281.86366   -2770.1151    2733.9347 
  127000    300.18523    317.21784    280.80009   -2809.6213    2766.5816 
  128000    300.38981    321.57088    281.67098   -2835.4255    2807.4433 
  129000     299.8858     317.8993    276.02318   -2866.2194    2850.3276 
  130000    300.41183    322.80631    281.58953   -2918.6328    2884.3371 
  131000    300.15188    318.18705    283.36235   -2942.1701    2912.8435 
  132000    299.87086    316.57898    280.78013   -2988.1686    2951.9022 
  133000    300.33759    320.52759    280.23167   -3035.5933    2989.3326 
  134000    300.81003    315.84004    282.19542   -3056.8776    3019.2709 
  135000    300.94795    317.67532    282.07734   -3098.0133    3059.2417 
  136000    300.56515    316.96047     282.2789   -3143.9945    3090.6641 
  137000    301.42464    323.61262    283.96588   -3182.7247    3119.2984 
  138000    301.15211    314.97637    281.75219   -3208.3556    3163.0741 
  139000    301.17822    320.66451    283.55959    -3255.428    3193.9468 
  140000    301.45331    317.59207    283.70327   -3285.9006     3236.239 
  141000    300.74948    322.89692    280.52816   -3339.1687    3278.6656 
  142000    301.03978    313.70361    279.13624   -3364.1627    3323.4637 
  143000     300.6871    315.04219    282.66099   -3387.8176    3352.5155 
  144000    299.88229    318.40543    279.77178   -3427.2359    3390.9235 
  145000    300.03266    319.91462    277.31729   -3460.3035    3427.7377 
  145001    300.03196    319.97483    277.42988   -3460.3605    3427.4835 
Loop time of 6732.4 on 32 procs for 100000 steps with 193600 atoms

Performance: 0.642 ns/day, 37.402 hours/ns, 14.854 timesteps/s
91.0% CPU use with 32 MPI tasks x no OpenMP threads

MPI task timing breakdown:
Section |  min time  |  avg time  |  max time  |%varavg| %total
---------------------------------------------------------------
Pair    | 5601.9     | 5681.5     | 5795.5     |  52.3 | 84.39
Neigh   | 0          | 0          | 0          |   0.0 |  0.00
Comm    | 349.82     | 586.3      | 727.14     | 414.6 |  8.71
Output  | 0.097805   | 0.10088    | 0.10499    |   0.6 |  0.00
Modify  | 332.63     | 436.13     | 569.12     | 409.1 |  6.48
Other   |            | 28.41      |            |       |  0.42

Nlocal:    6050 ave 6098 max 6014 min
Histogram: 3 4 4 5 5 3 3 1 1 3
Nghost:    5892.5 ave 5929 max 5844 min
Histogram: 3 1 1 3 3 4 6 4 4 3
Neighs:    0 ave 0 max 0 min
Histogram: 32 0 0 0 0 0 0 0 0 0
FullNghs:  213115 ave 215172 max 211838 min
Histogram: 6 3 6 4 2 5 2 0 2 2

Total # of neighbors = 6819670
Ave neighs/atom = 35.2256
Neighbor list builds = 0
Dangerous builds = 0

# thermal conductivity calculation
# reset langevin thermostats to zero energy accumulation
reset_timestep 0
thermo		$c
thermo		500000
compute		ke all ke/atom
variable	temp atom c_ke/1.5/8.617332478e-5
fix		hot all langevin ${thi} ${thi} ${tdamp} 389516 tally yes
fix		hot all langevin 319.9225 ${thi} ${tdamp} 389516 tally yes
fix		hot all langevin 319.9225 319.9225 ${tdamp} 389516 tally yes
fix		hot all langevin 319.9225 319.9225 0.05 389516 tally yes
fix_modify	hot temp Thot
fix		cold all langevin ${tlo} ${tlo} ${tdamp} 46579 tally yes
fix		cold all langevin 280.0775 ${tlo} ${tdamp} 46579 tally yes
fix		cold all langevin 280.0775 280.0775 ${tdamp} 46579 tally yes
fix		cold all langevin 280.0775 280.0775 0.05 46579 tally yes
fix_modify	cold temp Tcold

compute		ch all chunk/atom bin/1d x lower 0.02 units reduced
fix		11 all ave/chunk $a $b $c ch v_temp file sw_${P}.langevin
fix		11 all ave/chunk 100 $b $c ch v_temp file sw_${P}.langevin
fix		11 all ave/chunk 100 5000 $c ch v_temp file sw_${P}.langevin
fix		11 all ave/chunk 100 5000 500000 ch v_temp file sw_${P}.langevin
fix		11 all ave/chunk 100 5000 500000 ch v_temp file sw_25.langevin
thermo_style	custom step temp c_Thot c_Tcold f_hot f_cold

run		${t2nve}
run		500000
Per MPI rank memory allocation (min/avg/max) = 5.118 | 5.12 | 5.121 Mbytes
Step Temp c_Thot c_Tcold f_hot f_cold 
       0    300.03196    319.67209    277.40047           -0           -0 
  500000    300.11497     321.9427    284.79087   -17720.238    17731.261 
Loop time of 33582.3 on 32 procs for 500000 steps with 193600 atoms

Performance: 0.643 ns/day, 37.314 hours/ns, 14.889 timesteps/s
91.3% CPU use with 32 MPI tasks x no OpenMP threads

MPI task timing breakdown:
Section |  min time  |  avg time  |  max time  |%varavg| %total
---------------------------------------------------------------
Pair    | 27930      | 28369      | 28951      | 107.7 | 84.47
Neigh   | 0          | 0          | 0          |   0.0 |  0.00
Comm    | 1923.6     | 2922       | 3632.6     | 832.8 |  8.70
Output  | 0.057181   | 0.077325   | 0.07874    |   1.6 |  0.00
Modify  | 1577.2     | 2151.8     | 2795.7     | 868.1 |  6.41
Other   |            | 139.8      |            |       |  0.42

Nlocal:    6050 ave 6086 max 6003 min
Histogram: 1 2 3 3 5 2 6 3 3 4
Nghost:    5892.5 ave 5940 max 5857 min
Histogram: 5 3 2 6 2 5 4 2 2 1
Neighs:    0 ave 0 max 0 min
Histogram: 32 0 0 0 0 0 0 0 0 0
FullNghs:  213144 ave 214570 max 211321 min
Histogram: 1 2 5 1 4 5 4 2 1 7

Total # of neighbors = 6820598
Ave neighs/atom = 35.2304
Neighbor list builds = 0
Dangerous builds = 0
clear
next		P
jump		Si.in
 units       metal
#----------------------------- User Input Variables --------------------------------------
################### Geometrical Parameters ###############################
variable	P index 25 26 27 28
variable	W equal 22
# Lattice Constant
variable	LC equal 5.43
# Length
variable	L equal 50
# Width
#variable	W equal 6
# Height
variable	H equal ${W}
variable	H equal 22
################### Simulation Condition ###############################
#DT/DX=cte
variable	cte equal 1.5938
log         sw_${P}.log
log         sw_26.log
