# temperature
variable	T equal 300
#cold region temperature
#variable        tlo equal 275
variable        tlo equal ${T}-${L}*${cte}/4.0
variable        tlo equal 300-${L}*${cte}/4.0
variable        tlo equal 300-50*${cte}/4.0
variable        tlo equal 300-50*1.5938/4.0
#hot region temperature
#variable        thi equal ${cte}*${L}/2+${tlo}
variable        thi equal ${T}+${L}*${cte}/4.0
variable        thi equal 300+${L}*${cte}/4.0
variable        thi equal 300+50*${cte}/4.0
variable        thi equal 300+50*1.5938/4.0

#time step (picoseconds)
variable	dt equal 0.0005 # 0.5 femtoseconds
#number of time steps for NPT
variable	tnpt equal 5000
#number of time steps for NVT
variable	tnvt equal 40000
#number of time steps for first NVE
variable	t1nve equal 100000
#number of time steps for second NVE
variable	t2nve equal 500000

################### Variable Based on LAMMPS Documentation ######################
variable	a equal 100
variable	c equal ${t2nve}
variable	c equal 500000
variable	b equal $c/$a
variable	b equal 500000/$a
variable	b equal 500000/100
variable	tdamp equal ${dt}*100
variable	tdamp equal 0.0005*100
variable	pdamp equal ${dt}*1000
variable	pdamp equal 0.0005*1000

#----------------------------------------------------------------------------------------
# setup problem
dimension       3
boundary        p p p
atom_style      atomic
lattice 	diamond ${LC} origin 0.0 0.0 0.0 orient x 1 0 0 orient y 0 1 0 orient z 0 0 1
lattice 	diamond 5.43 origin 0.0 0.0 0.0 orient x 1 0 0 orient y 0 1 0 orient z 0 0 1
Lattice spacing in x,y,z = 5.43 5.43 5.43
region          0 block 0 $L 0 $W 0 $H units lattice side in
region          0 block 0 50 0 $W 0 $H units lattice side in
region          0 block 0 50 0 22 0 $H units lattice side in
region          0 block 0 50 0 22 0 22 units lattice side in
create_box      1 0
Created orthogonal box = (0 0 0) to (271.5 119.46 119.46)
  8 by 2 by 2 MPI processor grid
create_atoms    1 region 0
Created 193600 atoms
mass		1 28.0855
#dump		1 all xyz 1000 Si_W_${W}nm.xyz
#dump_modify	1 element Si

############################################
pair_style   sw
pair_coeff   * * Si${P}.sw Si
pair_coeff   * * Si22.sw Si
thermo		100
thermo_style custom step lx
min_style cg
minimize 0.0 1.0e-8 10000 100000
WARNING: Using 'neigh_modify every 1 delay 0 check yes' setting during minimization (../min.cpp:168)
Neighbor list info ...
  update every 1 steps, delay 0 steps, check yes
  max neighbors/atom: 2000, page size: 100000
  master list distance cutoff = 6.03813
  ghost atom cutoff = 6.03813
  binsize = 3.01906, bins = 90 40 40
  1 neighbor lists, perpetual/occasional/extra = 1 0 0
  (1) pair sw, perpetual
      attributes: full, newton on
      pair build: full/bin/atomonly
      stencil: full/bin/3d
      bin: standard
Per MPI rank memory allocation (min/avg/max) = 5.235 | 5.235 | 5.235 Mbytes
Step Lx 
       0        271.5 
       1        271.5 
Loop time of 0.309422 on 32 procs for 1 steps with 193600 atoms

95.5% CPU use with 32 MPI tasks x no OpenMP threads

Minimization stats:
  Stopping criterion = force tolerance
  Energy initial, next-to-last, final = 
        -968385.169985     -968385.169985     -968385.169985
  Force two-norm initial, final = 9.29107e-11 9.28799e-11
  Force max component initial, final = 5.15038e-13 5.19376e-13
  Final line search alpha, max atom move = 1 5.19376e-13
  Iterations, force evaluations = 1 2

MPI task timing breakdown:
Section |  min time  |  avg time  |  max time  |%varavg| %total
---------------------------------------------------------------
Pair    | 0.28523    | 0.28818    | 0.2926     |   0.3 | 93.13
Neigh   | 0          | 0          | 0          |   0.0 |  0.00
Comm    | 0.005806   | 0.013761   | 0.019914   |   2.4 |  4.45
Output  | 0          | 0          | 0          |   0.0 |  0.00
Modify  | 0          | 0          | 0          |   0.0 |  0.00
Other   |            | 0.007481   |            |       |  2.42

Nlocal:    6050 ave 6050 max 6050 min
Histogram: 32 0 0 0 0 0 0 0 0 0
Nghost:    5892.5 ave 5893 max 5892 min
Histogram: 16 0 0 0 0 0 0 0 0 16
Neighs:    0 ave 0 max 0 min
Histogram: 32 0 0 0 0 0 0 0 0 0
FullNghs:  278300 ave 278300 max 278300 min
Histogram: 32 0 0 0 0 0 0 0 0 0

Total # of neighbors = 8905600
Ave neighs/atom = 46
Neighbor list builds = 0
Dangerous builds = 0
timestep     ${dt}
timestep     0.0005
velocity 	all create $T 492845
velocity 	all create 300 492845


fix 		NPT all npt temp $T $T ${tdamp} iso 0.0 0.0 ${pdamp}
fix 		NPT all npt temp 300 $T ${tdamp} iso 0.0 0.0 ${pdamp}
fix 		NPT all npt temp 300 300 ${tdamp} iso 0.0 0.0 ${pdamp}
fix 		NPT all npt temp 300 300 0.05 iso 0.0 0.0 ${pdamp}
fix 		NPT all npt temp 300 300 0.05 iso 0.0 0.0 0.5
thermo		100
thermo_style custom step lx press
run		${tnpt}
run		5000
Per MPI rank memory allocation (min/avg/max) = 4.11 | 4.11 | 4.11 Mbytes
Step Lx Press 
       1        271.5    74841.798 
     100    275.45929    33683.174 
     200    277.89235    16195.029 
     300    279.21776    4612.0336 
     400    279.72067    557.90934 
     500    279.78279   -34.486941 
     600    279.78599    36.228795 
     700    279.77977   -45.159983 
     800    279.79454    -99.40991 
     900     279.7861   -9.6735379 
    1000    279.78847    57.202623 
    1100    279.78073    75.408743 
    1200    279.78843    -10.57092 
    1300    279.78162    12.452164 
    1400    279.78375   -8.5802704 
    1500    279.78118    9.2006798 
    1600    279.78603    -5.106087 
    1700    279.77832    27.875405 
    1800    279.79216   -62.326653 
    1900    279.78542   -10.095606 
    2000     279.7866    15.085579 
    2100    279.78205    49.568024 
    2200    279.78447    25.160629 
    2300     279.7802    29.964931 
    2400    279.78716    35.322572 
    2500    279.79217   -24.933934 
    2600    279.77952    61.535264 
    2700    279.78593    72.088934 
    2800    279.79334   -89.511859 
    2900    279.77869    121.27086 
    3000    279.79264   -111.87879 
    3100    279.78649    119.20048 
    3200    279.78181   -31.325021 
    3300    279.80867   -89.039989 
    3400    279.76308    191.18783 
    3500    279.81303   -233.83526 
    3600    279.76545    198.03094 
    3700    279.80629   -146.03786 
    3800    279.78049    86.699824 
    3900    279.79592   -58.023894 
    4000    279.78582    51.003674 
    4100    279.79274   -29.344589 
    4200    279.78637    69.451013 
    4300    279.79181    -55.39996 
    4400    279.79367    11.682323 
    4500     279.7829    39.759399 
    4600    279.80207   -60.014506 
    4700    279.77925    74.216953 
    4800    279.80218   -63.696628 
    4900    279.78209    93.380062 
    5000     279.8004   -68.691601 
    5001     279.8003   -67.705382 
Loop time of 457.447 on 32 procs for 5000 steps with 193600 atoms

Performance: 0.472 ns/day, 50.827 hours/ns, 10.930 timesteps/s
91.0% CPU use with 32 MPI tasks x no OpenMP threads

MPI task timing breakdown:
Section |  min time  |  avg time  |  max time  |%varavg| %total
---------------------------------------------------------------
Pair    | 388.5      | 392.71     | 400.54     |  15.0 | 85.85
Neigh   | 0.1476     | 0.15143    | 0.16545    |   0.9 |  0.03
Comm    | 25.042     | 39.144     | 48.389     | 101.7 |  8.56
Output  | 0.030378   | 0.033449   | 0.036765   |   1.2 |  0.01
Modify  | 16.788     | 24.377     | 31.971     | 118.6 |  5.33
Other   |            | 1.031      |            |       |  0.23

Nlocal:    6050 ave 6102 max 5966 min
Histogram: 1 0 1 2 6 5 6 5 4 2
Nghost:    5892.5 ave 5976 max 5840 min
Histogram: 2 4 5 5 6 5 3 1 0 1
Neighs:    0 ave 0 max 0 min
Histogram: 32 0 0 0 0 0 0 0 0 0
FullNghs:  221061 ave 223478 max 217435 min
Histogram: 1 0 1 4 5 4 7 4 3 3

Total # of neighbors = 7073938
Ave neighs/atom = 36.5389
Neighbor list builds = 10
Dangerous builds = 0
unfix		NPT
variable	length equal lx/${LC}
variable	length equal lx/5.43

################### Geometrical Parameters After Relaxation ###############################
# Thermostat_width
variable	TW equal ${length}/40
variable	TW equal 51.5285997099765/40
# Hot_Start
variable	hs equal ${length}/4-${TW}
variable	hs equal 51.5285997099765/4-${TW}
variable	hs equal 51.5285997099765/4-1.28821499274941
# Hot_End
variable	he equal ${length}/4+${TW}
variable	he equal 51.5285997099765/4+${TW}
variable	he equal 51.5285997099765/4+1.28821499274941
# Cold_Start
variable	cs equal 3*${length}/4-${TW}
variable	cs equal 3*51.5285997099765/4-${TW}
variable	cs equal 3*51.5285997099765/4-1.28821499274941
# Cold_End
variable	ce equal 3*${length}/4+${TW}
variable	ce equal 3*51.5285997099765/4+${TW}
variable	ce equal 3*51.5285997099765/4+1.28821499274941
###########################################################################################

################### Defining Thermostat ###################################################
region 		hot block ${hs} ${he} EDGE EDGE EDGE EDGE
region 		hot block 11.5939349347447 ${he} EDGE EDGE EDGE EDGE
region 		hot block 11.5939349347447 14.1703649202435 EDGE EDGE EDGE EDGE
region 		cold block ${cs} ${ce} EDGE EDGE EDGE EDGE
region 		cold block 37.358234789733 ${ce} EDGE EDGE EDGE EDGE
region 		cold block 37.358234789733 39.9346647752318 EDGE EDGE EDGE EDGE
group		test region cold
9578 atoms in group test
group		test1 region hot
9552 atoms in group test1
compute		Thot all temp/region hot
compute         Tcold all temp/region cold
###########################################################################################

fix		NVT all nvt temp $T $T ${tdamp}
fix		NVT all nvt temp 300 $T ${tdamp}
fix		NVT all nvt temp 300 300 ${tdamp}
fix		NVT all nvt temp 300 300 0.05
thermo		1000
thermo_style	custom step temp
run		${tnvt}
run		40000
Per MPI rank memory allocation (min/avg/max) = 4.114 | 4.115 | 4.117 Mbytes
Step Temp 
    5001    299.65085 
    6000    302.66053 
    7000    298.15227 
    8000    302.43943 
    9000    299.52786 
   10000    299.85809 
   11000    300.06162 
   12000    299.98331 
   13000    299.65454 
   14000     299.6872 
   15000    300.59152 
   16000    299.60383 
   17000    299.36335 
   18000    299.49938 
   19000    300.31736 
   20000    300.99302 
   21000    300.49105 
   22000    300.01066 
   23000    300.34006 
   24000    300.73608 
   25000    300.07769 
   26000    299.86189 
   27000    300.24871 
   28000    299.44306 
   29000    300.38232 
   30000    299.71475 
   31000    300.01281 
   32000    298.72233 
   33000    300.06304 
   34000    299.74036 
   35000    299.58855 
   36000    300.70587 
   37000    299.60543 
   38000    300.92359 
   39000    299.46372 
   40000    299.92154 
   41000    300.07695 
   42000    299.84836 
   43000     299.4955 
   44000    299.27159 
   45000    299.18843 
   45001     299.1784 
Loop time of 3508.33 on 32 procs for 40000 steps with 193600 atoms

Performance: 0.493 ns/day, 48.727 hours/ns, 11.401 timesteps/s
92.2% CPU use with 32 MPI tasks x no OpenMP threads

MPI task timing breakdown:
Section |  min time  |  avg time  |  max time  |%varavg| %total
---------------------------------------------------------------
Pair    | 3042.1     | 3078.4     | 3130.6     |  40.2 | 87.74
Neigh   | 0          | 0          | 0          |   0.0 |  0.00
Comm    | 162.85     | 266.05     | 340.6      | 324.6 |  7.58
Output  | 0.023763   | 0.025704   | 0.028381   |   0.8 |  0.00
Modify  | 101.06     | 148.93     | 210.78     | 313.1 |  4.25
Other   |            | 14.97      |            |       |  0.43

Nlocal:    6050 ave 6104 max 5988 min
Histogram: 1 3 0 4 4 8 4 4 1 3
Nghost:    5892.5 ave 5955 max 5838 min
Histogram: 3 0 5 3 8 5 3 1 3 1
Neighs:    0 ave 0 max 0 min
Histogram: 32 0 0 0 0 0 0 0 0 0
FullNghs:  222384 ave 224755 max 219598 min
Histogram: 3 1 1 4 3 7 4 5 1 3

Total # of neighbors = 7116294
Ave neighs/atom = 36.7577
Neighbor list builds = 0
Dangerous builds = 0
velocity	all scale $T
velocity	all scale 300
unfix		NVT

fix		NVE all nve
fix		hot all langevin ${thi} ${thi} ${tdamp} 389516 tally yes
fix		hot all langevin 319.9225 ${thi} ${tdamp} 389516 tally yes
fix		hot all langevin 319.9225 319.9225 ${tdamp} 389516 tally yes
fix		hot all langevin 319.9225 319.9225 0.05 389516 tally yes
fix_modify	hot temp Thot
fix		cold all langevin ${tlo} ${tlo} ${tdamp} 46579 tally yes
fix		cold all langevin 280.0775 ${tlo} ${tdamp} 46579 tally yes
fix		cold all langevin 280.0775 280.0775 ${tdamp} 46579 tally yes
fix		cold all langevin 280.0775 280.0775 0.05 46579 tally yes
fix_modify	cold temp Tcold

thermo_style	custom step temp c_Thot c_Tcold f_hot f_cold
run		${t1nve}
run		100000
Per MPI rank memory allocation (min/avg/max) = 4.864 | 4.865 | 4.867 Mbytes
Step Temp c_Thot c_Tcold f_hot f_cold 
   45001          300    298.35636    301.14442           -0           -0 
   46000    299.89797    319.16912    283.33223   -70.120528    77.463868 
   47000    300.48217     320.9149    277.93795   -102.12566    104.50316 
   48000    300.08545    317.00365    282.12321   -117.64877    125.57557 
   49000     300.4649    315.94606    282.69019    -154.7107    143.30969 
   50000    298.84343    313.52346    281.62721   -180.77537    180.28903 
   51000    299.30334     317.6877    280.52963   -208.46001    191.06584 
   52000    300.07664    317.44065    283.75852   -231.57647    226.37917 
   53000    299.11124    317.31331    278.39587   -262.80492    260.43064 
   54000     300.1452    317.60523    279.28794   -300.38243     297.7468 
   55000    300.73407    318.38038    279.68091   -339.39375    323.54374 
   56000     300.5617    320.01663    285.83985   -377.13199    350.22136 
   57000    300.83885    312.36399    282.07175   -403.43327    383.94717 
   58000    301.26824    323.12141    281.69235   -452.29529    415.97882 
   59000    300.07436    315.97732    280.66597   -465.76023    450.82019 
   60000    300.57037    322.23098    284.72098   -513.88504    478.13416 
   61000    300.64898    319.08865    278.70495   -549.73708    525.84729 
   62000    300.47915    316.84623    280.24188   -575.76837    560.15821 
   63000    300.71764    321.79765    279.22737   -629.17777    596.62195 
   64000    300.69702    320.55937    280.15639   -659.93917    629.49678 
   65000    300.93264    319.55463    279.11181   -705.27937    670.52857 
   66000    300.23358    322.22099    280.04565    -748.9709    712.78538 
   67000    301.05386    320.24784    281.06068   -768.00073    742.59099 
   68000    300.69892    318.26853    277.76275   -797.59083    786.88422 
   69000    299.74173    312.55759    283.76269   -824.87474    815.80157 
   70000    300.21546    319.24257    279.25662   -860.69523    859.54636 
   71000    300.15368     316.2307    278.93165   -905.51952    890.61245 
   72000    300.36382    321.63786    280.85974   -943.11834    936.59173 
   73000    300.43266    320.52227    279.42351   -987.94134    966.15401 
   74000    300.48967     319.8923    282.81731   -1026.1456    995.74332 
   75000    301.03036    320.87177    280.05256   -1051.3755    1031.8568 
   76000    301.00167    320.75976    281.27041   -1098.4304    1066.0773 
   77000    299.68487    320.83572    280.02486   -1133.9024     1108.793 
   78000    300.59699    317.08529    279.51972   -1164.3644     1146.433 
   79000    300.79185     321.4819    281.19443   -1201.1798    1190.4243 
   80000    300.63204    322.02731    283.45409   -1239.5337     1222.272 
   81000    301.09065    323.74379    282.33605   -1285.8125    1258.0973 
   82000    300.15398    314.85765    278.10605   -1313.6136    1300.6554 
   83000    300.38836    319.36473    283.51204   -1357.8968    1330.2195 
   84000    299.97469    313.96298    283.71992   -1390.0916    1367.1176 
   85000    300.44583    319.46302    283.65621   -1428.3262    1400.2549 
   86000    300.82782    318.19698    280.09977   -1471.2945    1442.9597 
   87000    300.38587    324.01023    279.62085   -1519.2882    1484.5462 
   88000    300.16912    313.00886    282.04758   -1536.5026    1521.5839 
   89000    300.45871    317.22729    284.39818   -1576.3846    1554.1272 
   90000    299.78303    319.94728    280.39622   -1617.4136    1600.2516 
   91000    300.14607    320.50693    279.08379   -1642.7789    1640.6149 
   92000    299.42614    313.65159    279.56358   -1667.7831    1679.4299 
   93000    300.80738    320.88014    283.77659   -1713.6394    1702.1974 
   94000    300.75485    323.00558    279.12889   -1762.3511    1745.4151 
   95000    300.03271    318.88519    279.97846   -1788.0062    1785.6651 
   96000    300.50792    317.90794     281.8902   -1825.6283    1825.1089 
   97000    299.89082    318.83379    282.78033   -1861.4881    1869.0629 
   98000    300.36223    320.65604    278.52709   -1904.4989    1904.9562 
   99000    299.89586    317.43783    286.14931   -1925.7179    1940.9513 
  100000    300.42071    317.27657     282.3909   -1972.3249    1972.4239 
  101000    299.32689    314.01596    282.33744   -2001.3077    2008.5379 
  102000    300.24141    324.58039    281.15938   -2055.2293    2046.9457 
  103000    300.59033    318.61288    286.35372   -2093.8857    2079.0985 
  104000    300.42139    319.25645    279.70344    -2135.043    2125.0642 
  105000    299.54905    319.04112    281.17305   -2181.8274    2159.9684 
  106000    300.53064    314.18861      280.501   -2208.3533    2199.0885 
  107000    300.73868    319.85399    283.03139   -2239.3588    2235.8113 
  108000    300.68083    326.90585    283.87753   -2294.6394    2268.3298 
  109000    299.78301     323.1866    283.79022   -2323.3604    2311.8936 
  110000    299.32471    317.55529    285.24716   -2350.6332    2355.1072 
  111000    299.81274    314.97412     277.7316   -2388.8722    2397.3435 
  112000    299.03307     316.0086    279.08234   -2421.8584    2429.5039 
  113000    300.77406    320.49084    284.57318   -2479.2998    2466.3975 
  114000    300.90085    318.47051    284.22152   -2508.0794     2501.601 
  115000    299.90149    313.34178    281.26205   -2546.4873    2547.6638 
  116000    299.38473    312.72527    279.23925   -2573.4695    2576.3374 
  117000    300.09328    317.46708    281.12875   -2625.0899    2625.2831 
  118000    300.49645    313.31062    282.35947   -2664.3442    2653.1266 
  119000    300.05278    320.78933    279.60525   -2714.4206    2692.3895 
  120000    300.15765    317.84457    280.96411   -2741.6778    2728.3724 
  121000     299.7358    317.44273    278.59795   -2786.8083    2774.2078 
  122000     300.5865    319.03638    283.30281   -2824.2461    2801.4014 
  123000    300.85169    318.67505    284.63872   -2861.4186    2835.2216 
  124000    300.51335    316.69844    282.99801   -2900.2132    2875.5378 
  125000    300.82922    310.68077    283.51798   -2919.4523    2910.3704 
  126000    300.40778    315.49555    283.52954   -2964.0749    2955.8491 
  127000    299.97539    318.89812    280.58118   -3001.9681    2997.6497 
  128000    299.73861    316.23572    282.39729   -3035.4648    3034.8981 
  129000    299.31585    316.36099    282.01519    -3082.814    3083.3523 
  130000    300.59609    320.81882     280.5792   -3125.8302    3128.4116 
  131000     300.6002    321.62483    283.42067   -3172.7471    3163.8421 
  132000    300.27454    318.93153    282.44877   -3203.6956    3197.8685 
  133000    300.20982    317.75088    282.28605   -3242.5012    3234.0166 
  134000     299.8594    319.77952    280.37847   -3275.0797     3265.772 
  135000    299.79158    317.53525    278.92403   -3306.1738    3303.0687 
  136000    301.11908    320.64063    286.05964   -3348.7935     3330.176 
  137000    300.19428    319.41132    275.92719   -3392.2887    3384.0071 
  138000     300.2301    317.26301    283.20811   -3433.6228    3405.5523 
  139000    300.83844    317.58016    282.98943    -3458.534    3437.7573 
  140000    300.47153    318.61526     281.1179   -3502.7806     3479.257 
  141000    300.37001       316.51    283.51319   -3540.0035    3520.4848 
  142000     299.7801    317.45184    278.92766   -3572.6218    3563.3185 
  143000    300.24516    321.72178    282.47497   -3612.3967      3603.28 
  144000    300.27006    317.06584    281.62555    -3649.339    3650.9186 
  145000    300.43226     320.1485     282.8659   -3685.9432    3689.7985 
  145001    300.44399    320.28352    282.95678   -3685.5848    3689.8498 
Loop time of 8967.82 on 32 procs for 100000 steps with 193600 atoms

Performance: 0.482 ns/day, 49.821 hours/ns, 11.151 timesteps/s
91.9% CPU use with 32 MPI tasks x no OpenMP threads

MPI task timing breakdown:
Section |  min time  |  avg time  |  max time  |%varavg| %total
---------------------------------------------------------------
Pair    | 7637.7     | 7720.4     | 7864.9     |  64.1 | 86.09
Neigh   | 0          | 0          | 0          |   0.0 |  0.00
Comm    | 439.24     | 713.98     | 876.09     | 435.7 |  7.96
Output  | 0.12115    | 0.12469    | 0.12797    |   0.5 |  0.00
Modify  | 379.87     | 503.94     | 664.74     | 451.4 |  5.62
Other   |            | 29.37      |            |       |  0.33

Nlocal:    6050 ave 6092 max 5995 min
Histogram: 1 1 1 1 9 4 6 5 3 1
Nghost:    5892.5 ave 5948 max 5851 min
Histogram: 1 3 5 7 4 8 1 1 1 1
Neighs:    0 ave 0 max 0 min
Histogram: 32 0 0 0 0 0 0 0 0 0
FullNghs:  222072 ave 223707 max 219724 min
Histogram: 2 0 2 1 6 4 8 2 3 4

Total # of neighbors = 7106304
Ave neighs/atom = 36.7061
Neighbor list builds = 0
Dangerous builds = 0

# thermal conductivity calculation
# reset langevin thermostats to zero energy accumulation
reset_timestep 0
thermo		$c
thermo		500000
compute		ke all ke/atom
variable	temp atom c_ke/1.5/8.617332478e-5
fix		hot all langevin ${thi} ${thi} ${tdamp} 389516 tally yes
fix		hot all langevin 319.9225 ${thi} ${tdamp} 389516 tally yes
fix		hot all langevin 319.9225 319.9225 ${tdamp} 389516 tally yes
fix		hot all langevin 319.9225 319.9225 0.05 389516 tally yes
fix_modify	hot temp Thot
fix		cold all langevin ${tlo} ${tlo} ${tdamp} 46579 tally yes
fix		cold all langevin 280.0775 ${tlo} ${tdamp} 46579 tally yes
fix		cold all langevin 280.0775 280.0775 ${tdamp} 46579 tally yes
fix		cold all langevin 280.0775 280.0775 0.05 46579 tally yes
fix_modify	cold temp Tcold

compute		ch all chunk/atom bin/1d x lower 0.02 units reduced
fix		11 all ave/chunk $a $b $c ch v_temp file sw_${P}.langevin
fix		11 all ave/chunk 100 $b $c ch v_temp file sw_${P}.langevin
fix		11 all ave/chunk 100 5000 $c ch v_temp file sw_${P}.langevin
fix		11 all ave/chunk 100 5000 500000 ch v_temp file sw_${P}.langevin
fix		11 all ave/chunk 100 5000 500000 ch v_temp file sw_22.langevin
thermo_style	custom step temp c_Thot c_Tcold f_hot f_cold

run		${t2nve}
run		500000
Per MPI rank memory allocation (min/avg/max) = 5.115 | 5.115 | 5.117 Mbytes
Step Temp c_Thot c_Tcold f_hot f_cold 
       0    300.44399    320.54129    282.85235           -0           -0 
  500000    300.01243    318.29954    279.99232   -18253.316    18242.009 
Loop time of 44539 on 32 procs for 500000 steps with 193600 atoms

Performance: 0.485 ns/day, 49.488 hours/ns, 11.226 timesteps/s
92.3% CPU use with 32 MPI tasks x no OpenMP threads

MPI task timing breakdown:
Section |  min time  |  avg time  |  max time  |%varavg| %total
---------------------------------------------------------------
Pair    | 38161      | 38599      | 39150      | 129.2 | 86.66
Neigh   | 0          | 0          | 0          |   0.0 |  0.00
Comm    | 2123       | 3374.6     | 4252.1     |1011.4 |  7.58
Output  | 0.000934   | 0.0018005  | 0.002159   |   0.5 |  0.00
Modify  | 1745.9     | 2423.8     | 3156.1     | 983.8 |  5.44
Other   |            | 141.3      |            |       |  0.32

Nlocal:    6050 ave 6084 max 5986 min
Histogram: 1 0 0 1 3 5 10 6 4 2
Nghost:    5892.5 ave 5957 max 5859 min
Histogram: 2 4 7 10 4 3 1 0 0 1
Neighs:    0 ave 0 max 0 min
Histogram: 32 0 0 0 0 0 0 0 0 0
FullNghs:  221976 ave 223412 max 219062 min
Histogram: 1 0 0 0 4 2 11 7 4 3

Total # of neighbors = 7103240
Ave neighs/atom = 36.6903
Neighbor list builds = 0
Dangerous builds = 0
clear
next		P
jump		Si.in
 units       metal
#----------------------------- User Input Variables --------------------------------------
################### Geometrical Parameters ###############################
variable	P index 21 22 23 24
variable	W equal 22
# Lattice Constant
variable	LC equal 5.43
# Length
variable	L equal 50
# Width
#variable	W equal 6
# Height
variable	H equal ${W}
variable	H equal 22
################### Simulation Condition ###############################
#DT/DX=cte
variable	cte equal 1.5938
log         sw_${P}.log
log         sw_23.log
