# temperature
variable	T equal 300
#cold region temperature
#variable        tlo equal 275
variable        tlo equal ${T}-${L}*${cte}/4.0
variable        tlo equal 300-${L}*${cte}/4.0
variable        tlo equal 300-50*${cte}/4.0
variable        tlo equal 300-50*1.5938/4.0
#hot region temperature
#variable        thi equal ${cte}*${L}/2+${tlo}
variable        thi equal ${T}+${L}*${cte}/4.0
variable        thi equal 300+${L}*${cte}/4.0
variable        thi equal 300+50*${cte}/4.0
variable        thi equal 300+50*1.5938/4.0

#time step (picoseconds)
variable	dt equal 0.0005 # 0.5 femtoseconds
#number of time steps for NPT
variable	tnpt equal 5000
#number of time steps for NVT
variable	tnvt equal 40000
#number of time steps for first NVE
variable	t1nve equal 100000
#number of time steps for second NVE
variable	t2nve equal 500000

################### Variable Based on LAMMPS Documentation ######################
variable	a equal 100
variable	c equal ${t2nve}
variable	c equal 500000
variable	b equal $c/$a
variable	b equal 500000/$a
variable	b equal 500000/100
variable	tdamp equal ${dt}*100
variable	tdamp equal 0.0005*100
variable	pdamp equal ${dt}*1000
variable	pdamp equal 0.0005*1000

#----------------------------------------------------------------------------------------
# setup problem
dimension       3
boundary        p p p
atom_style      atomic
lattice 	diamond ${LC} origin 0.0 0.0 0.0 orient x 1 0 0 orient y 0 1 0 orient z 0 0 1
lattice 	diamond 5.43 origin 0.0 0.0 0.0 orient x 1 0 0 orient y 0 1 0 orient z 0 0 1
Lattice spacing in x,y,z = 5.43 5.43 5.43
region          0 block 0 $L 0 $W 0 $H units lattice side in
region          0 block 0 50 0 $W 0 $H units lattice side in
region          0 block 0 50 0 22 0 $H units lattice side in
region          0 block 0 50 0 22 0 22 units lattice side in
create_box      1 0
Created orthogonal box = (0 0 0) to (271.5 119.46 119.46)
  8 by 2 by 2 MPI processor grid
create_atoms    1 region 0
Created 193600 atoms
mass		1 28.0855
#dump		1 all xyz 1000 Si_W_${W}nm.xyz
#dump_modify	1 element Si

############################################
pair_style   sw
pair_coeff   * * Si${P}.sw Si
pair_coeff   * * Si26.sw Si
thermo		100
thermo_style custom step lx
min_style cg
minimize 0.0 1.0e-8 10000 100000
WARNING: Using 'neigh_modify every 1 delay 0 check yes' setting during minimization (../min.cpp:168)
Neighbor list info ...
  update every 1 steps, delay 0 steps, check yes
  max neighbors/atom: 2000, page size: 100000
  master list distance cutoff = 5.93606
  ghost atom cutoff = 5.93606
  binsize = 2.96803, bins = 92 41 41
  1 neighbor lists, perpetual/occasional/extra = 1 0 0
  (1) pair sw, perpetual
      attributes: full, newton on
      pair build: full/bin/atomonly
      stencil: full/bin/3d
      bin: standard
Per MPI rank memory allocation (min/avg/max) = 5.235 | 5.236 | 5.238 Mbytes
Step Lx 
       0        271.5 
       1        271.5 
Loop time of 0.309114 on 32 procs for 1 steps with 193600 atoms

95.5% CPU use with 32 MPI tasks x no OpenMP threads

Minimization stats:
  Stopping criterion = force tolerance
  Energy initial, next-to-last, final = 
          -959542.7692       -959542.7692       -959542.7692
  Force two-norm initial, final = 9.84471e-11 9.8375e-11
  Force max component initial, final = 5.75261e-13 5.78043e-13
  Final line search alpha, max atom move = 1 5.78043e-13
  Iterations, force evaluations = 1 2

MPI task timing breakdown:
Section |  min time  |  avg time  |  max time  |%varavg| %total
---------------------------------------------------------------
Pair    | 0.28442    | 0.28675    | 0.2954     |   0.4 | 92.76
Neigh   | 0          | 0          | 0          |   0.0 |  0.00
Comm    | 0.005241   | 0.013607   | 0.019178   |   3.4 |  4.40
Output  | 0          | 0          | 0          |   0.0 |  0.00
Modify  | 0          | 0          | 0          |   0.0 |  0.00
Other   |            | 0.008757   |            |       |  2.83

Nlocal:    6050 ave 6050 max 6050 min
Histogram: 32 0 0 0 0 0 0 0 0 0
Nghost:    5892.5 ave 5893 max 5892 min
Histogram: 16 0 0 0 0 0 0 0 0 16
Neighs:    0 ave 0 max 0 min
Histogram: 32 0 0 0 0 0 0 0 0 0
FullNghs:  278300 ave 278300 max 278300 min
Histogram: 32 0 0 0 0 0 0 0 0 0

Total # of neighbors = 8905600
Ave neighs/atom = 46
Neighbor list builds = 0
Dangerous builds = 0
timestep     ${dt}
timestep     0.0005
velocity 	all create $T 492845
velocity 	all create 300 492845


fix 		NPT all npt temp $T $T ${tdamp} iso 0.0 0.0 ${pdamp}
fix 		NPT all npt temp 300 $T ${tdamp} iso 0.0 0.0 ${pdamp}
fix 		NPT all npt temp 300 300 ${tdamp} iso 0.0 0.0 ${pdamp}
fix 		NPT all npt temp 300 300 0.05 iso 0.0 0.0 ${pdamp}
fix 		NPT all npt temp 300 300 0.05 iso 0.0 0.0 0.5
thermo		100
thermo_style custom step lx press
run		${tnpt}
run		5000
Per MPI rank memory allocation (min/avg/max) = 4.11 | 4.111 | 4.113 Mbytes
Step Lx Press 
       1        271.5    60946.425 
     100    274.96998    21175.841 
     200    276.57512    5050.1193 
     300    277.06341    144.86507 
     400    277.09681     83.45846 
     500    277.10553   -15.407665 
     600    277.12087    93.553719 
     700    277.13027   -1.6579249 
     800    277.15239   -18.801375 
     900    277.16045    25.590496 
    1000    277.17429    50.312599 
    1100    277.18591    5.5701838 
    1200    277.20085    8.8395523 
    1300    277.20876    -3.805335 
    1400    277.21914   -13.459115 
    1500    277.22517   -2.4648675 
    1600    277.22515    31.474037 
    1700    277.22416    5.7205471 
    1800    277.22386    -25.75429 
    1900    277.21812    6.1207336 
    2000    277.21889    13.304156 
    2100    277.22198   -9.2312923 
    2200    277.22534   -12.557004 
    2300    277.22452    11.500418 
    2400    277.22383    4.1333143 
    2500    277.22235   -15.972686 
    2600     277.2126    60.456928 
    2700    277.22552   -17.856769 
    2800     277.2243   -32.988776 
    2900    277.22373    37.048191 
    3000    277.22424   -39.071422 
    3100    277.21993    46.561329 
    3200    277.22062   -59.399735 
    3300    277.22676    18.629636 
    3400    277.20825    72.296889 
    3500    277.24632   -166.08687 
    3600    277.19655     241.6668 
    3700    277.24719   -231.28697 
    3800    277.20526    157.12282 
    3900    277.22634   -51.679605 
    4000    277.22199   -19.007394 
    4100     277.2242    4.3535782 
    4200    277.22022    12.429068 
    4300       277.23   -44.254912 
    4400    277.21214    88.180328 
    4500    277.23082   -88.000663 
    4600    277.21401    70.361464 
    4700    277.22583   -39.682505 
    4800    277.22333    7.4093756 
    4900    277.22356    7.4643054 
    5000    277.22066   -5.3666348 
    5001    277.22068   -4.8289391 
Loop time of 296.179 on 32 procs for 5000 steps with 193600 atoms

Performance: 0.729 ns/day, 32.909 hours/ns, 16.882 timesteps/s
90.1% CPU use with 32 MPI tasks x no OpenMP threads

MPI task timing breakdown:
Section |  min time  |  avg time  |  max time  |%varavg| %total
---------------------------------------------------------------
Pair    | 244.4      | 248.01     | 254.13     |  12.5 | 83.74
Neigh   | 0.097024   | 0.098471   | 0.10025    |   0.3 |  0.03
Comm    | 19.268     | 27.966     | 34.388     |  85.9 |  9.44
Output  | 0.028014   | 0.031801   | 0.036287   |   1.5 |  0.01
Modify  | 13.62      | 19.042     | 26.195     |  97.9 |  6.43
Other   |            | 1.035      |            |       |  0.35

Nlocal:    6050 ave 6084 max 5988 min
Histogram: 1 0 1 6 2 2 5 5 6 4
Nghost:    5892.5 ave 5954 max 5858 min
Histogram: 4 5 6 4 3 2 6 1 0 1
Neighs:    0 ave 0 max 0 min
Histogram: 32 0 0 0 0 0 0 0 0 0
FullNghs:  209066 ave 210407 max 206900 min
Histogram: 1 1 3 3 1 4 5 5 5 4

Total # of neighbors = 6690100
Ave neighs/atom = 34.5563
Neighbor list builds = 7
Dangerous builds = 0
unfix		NPT
variable	length equal lx/${LC}
variable	length equal lx/5.43

################### Geometrical Parameters After Relaxation ###############################
# Thermostat_width
variable	TW equal ${length}/40
variable	TW equal 51.0535315820306/40
# Hot_Start
variable	hs equal ${length}/4-${TW}
variable	hs equal 51.0535315820306/4-${TW}
variable	hs equal 51.0535315820306/4-1.27633828955077
# Hot_End
variable	he equal ${length}/4+${TW}
variable	he equal 51.0535315820306/4+${TW}
variable	he equal 51.0535315820306/4+1.27633828955077
# Cold_Start
variable	cs equal 3*${length}/4-${TW}
variable	cs equal 3*51.0535315820306/4-${TW}
variable	cs equal 3*51.0535315820306/4-1.27633828955077
# Cold_End
variable	ce equal 3*${length}/4+${TW}
variable	ce equal 3*51.0535315820306/4+${TW}
variable	ce equal 3*51.0535315820306/4+1.27633828955077
###########################################################################################

################### Defining Thermostat ###################################################
region 		hot block ${hs} ${he} EDGE EDGE EDGE EDGE
region 		hot block 11.4870446059569 ${he} EDGE EDGE EDGE EDGE
region 		hot block 11.4870446059569 14.0397211850584 EDGE EDGE EDGE EDGE
region 		cold block ${cs} ${ce} EDGE EDGE EDGE EDGE
region 		cold block 37.0138103969722 ${ce} EDGE EDGE EDGE EDGE
region 		cold block 37.0138103969722 39.5664869760737 EDGE EDGE EDGE EDGE
group		test region cold
9563 atoms in group test
group		test1 region hot
9572 atoms in group test1
compute		Thot all temp/region hot
compute         Tcold all temp/region cold
###########################################################################################

fix		NVT all nvt temp $T $T ${tdamp}
fix		NVT all nvt temp 300 $T ${tdamp}
fix		NVT all nvt temp 300 300 ${tdamp}
fix		NVT all nvt temp 300 300 0.05
thermo		1000
thermo_style	custom step temp
run		${tnvt}
run		40000
Per MPI rank memory allocation (min/avg/max) = 4.118 | 4.119 | 4.121 Mbytes
Step Temp 
    5001    299.69606 
    6000    298.51221 
    7000     297.9914 
    8000    300.71419 
    9000    300.14411 
   10000    298.18368 
   11000    298.53222 
   12000    299.70595 
   13000    300.26293 
   14000    298.92883 
   15000    300.95545 
   16000    299.80593 
   17000    300.89311 
   18000    298.25196 
   19000    299.01669 
   20000    299.85052 
   21000    301.11441 
   22000    299.97481 
   23000    300.44456 
   24000    299.45042 
   25000    298.84266 
   26000    299.46649 
   27000     299.8309 
   28000    300.16242 
   29000    299.71956 
   30000    300.78045 
   31000    299.65241 
   32000    298.55341 
   33000     299.7317 
   34000    299.35482 
   35000    298.70067 
   36000     300.1322 
   37000    300.07823 
   38000    300.01808 
   39000    299.74161 
   40000    300.18933 
   41000    299.35673 
   42000    300.25872 
   43000    299.26858 
   44000     300.4309 
   45000    300.62042 
   45001    300.66954 
Loop time of 2262.19 on 32 procs for 40000 steps with 193600 atoms

Performance: 0.764 ns/day, 31.419 hours/ns, 17.682 timesteps/s
90.6% CPU use with 32 MPI tasks x no OpenMP threads

MPI task timing breakdown:
Section |  min time  |  avg time  |  max time  |%varavg| %total
---------------------------------------------------------------
Pair    | 1897       | 1916.2     | 1950.4     |  34.8 | 84.71
Neigh   | 0          | 0          | 0          |   0.0 |  0.00
Comm    | 142.87     | 217.45     | 273.58     | 260.7 |  9.61
Output  | 0.022096   | 0.024922   | 0.027965   |   1.1 |  0.00
Modify  | 70.691     | 114.68     | 167.11     | 294.5 |  5.07
Other   |            | 13.8       |            |       |  0.61

Nlocal:    6050 ave 6101 max 5989 min
Histogram: 3 4 2 3 2 1 4 4 6 3
Nghost:    5892.5 ave 5954 max 5841 min
Histogram: 3 6 3 5 1 2 3 3 3 3
Neighs:    0 ave 0 max 0 min
Histogram: 32 0 0 0 0 0 0 0 0 0
FullNghs:  212442 ave 214374 max 210054 min
Histogram: 2 4 3 2 2 2 4 5 3 5

Total # of neighbors = 6798142
Ave neighs/atom = 35.1144
Neighbor list builds = 0
Dangerous builds = 0
velocity	all scale $T
velocity	all scale 300
unfix		NVT

fix		NVE all nve
fix		hot all langevin ${thi} ${thi} ${tdamp} 389516 tally yes
fix		hot all langevin 319.9225 ${thi} ${tdamp} 389516 tally yes
fix		hot all langevin 319.9225 319.9225 ${tdamp} 389516 tally yes
fix		hot all langevin 319.9225 319.9225 0.05 389516 tally yes
fix_modify	hot temp Thot
fix		cold all langevin ${tlo} ${tlo} ${tdamp} 46579 tally yes
fix		cold all langevin 280.0775 ${tlo} ${tdamp} 46579 tally yes
fix		cold all langevin 280.0775 280.0775 ${tdamp} 46579 tally yes
fix		cold all langevin 280.0775 280.0775 0.05 46579 tally yes
fix_modify	cold temp Tcold

thermo_style	custom step temp c_Thot c_Tcold f_hot f_cold
run		${t1nve}
run		100000
Per MPI rank memory allocation (min/avg/max) = 4.868 | 4.869 | 4.871 Mbytes
Step Temp c_Thot c_Tcold f_hot f_cold 
   45001          300    300.31152    294.92307           -0           -0 
   46000    300.25805    319.59322    283.29879   -84.975805    68.214765 
   47000    299.32916    316.94762    275.73944   -105.31128    107.41528 
   48000    300.76795    322.55289    281.16315   -137.54013    113.97334 
   49000    299.98744    317.04067    280.18831    -154.5529    150.97586 
   50000    300.22539    320.90268    278.17953   -197.23434    174.18493 
   51000    299.77981    320.84906    285.21489   -216.88329    191.10611 
   52000    300.53108    319.92243    280.76678   -241.32719    215.74381 
   53000    300.74336    321.61354    281.37516   -281.11053    253.98946 
   54000    300.08886    319.92555    279.68196   -310.50468    281.48068 
   55000    300.90879    314.51438    281.30042   -334.28676    320.76722 
   56000    300.36963    316.55079    282.12845   -376.28602    352.48178 
   57000    300.21793    317.47824    279.02865   -422.38533    390.91908 
   58000    300.09298    314.21081     284.1912   -453.04036    423.28125 
   59000    300.12144    320.75593    280.77286   -492.98662    463.80255 
   60000    300.98132    325.33195    279.55812   -543.06046    505.37064 
   61000    300.22042    321.31161    280.45256   -575.41712    547.60074 
   62000    300.25645    316.24574    281.90852    -597.5759    587.68189 
   63000    300.13013    318.38243     281.7129   -642.28396     627.1364 
   64000    300.76943    318.27111    279.47083   -671.75542    665.49446 
   65000    300.77187    319.94733    284.42256   -711.86059    689.53191 
   66000     299.5228    316.86122    283.89873   -743.75943    733.90109 
   67000    300.86876    318.71386    288.19969   -778.55905    756.19362 
   68000    300.22387    315.45905    280.70585   -818.56071    801.20024 
   69000     300.0264    315.62336    281.32375   -862.03108    837.05954 
   70000    299.43801    319.00421    279.93208   -897.65492    881.44686 
   71000    299.40391    318.27338    280.66391   -945.17903    924.61001 
   72000    300.62028    317.70817    280.13545   -972.29753    956.44243 
   73000     299.6315    322.15567    278.35189   -1015.0054    995.82526 
   74000    300.39064    319.28403    282.47205   -1053.8396    1025.7223 
   75000    299.66626    319.46646     282.1482   -1082.5066     1064.535 
   76000    300.10807    316.24995    282.43031   -1117.0408    1110.0407 
   77000    299.57014    320.57148    280.42984   -1154.0431    1145.0233 
   78000     300.3683    317.85986    282.10528   -1199.8527    1187.6568 
   79000    299.56228    313.41216     276.8883   -1225.8688    1231.9182 
   80000    299.70313    317.62992     278.4591   -1275.0248    1267.3627 
   81000    299.02749    318.88958    278.64419   -1316.0081    1301.2794 
   82000      299.518    313.99706    276.19393   -1355.1806    1347.3691 
   83000    300.48744    316.12587    284.06387   -1396.3297     1380.612 
   84000    299.73393    314.61013    283.55259   -1423.1562    1422.9072 
   85000    300.05491    318.05502     282.0677   -1471.9774    1464.5275 
   86000    299.31837    318.91574    282.57932   -1510.8495    1507.7408 
   87000    299.84393    314.66054    281.78319   -1540.9823    1541.6396 
   88000    299.48287    313.74779    279.45523   -1575.1743    1584.8143 
   89000    299.99658    314.97542    283.92191   -1607.0651    1618.1501 
   90000    300.04301    323.98483    283.25638   -1661.5713    1659.4654 
   91000    299.51566    315.68825     281.2033   -1673.7815    1695.4289 
   92000    299.11679    316.21042    282.81199   -1729.6889    1745.7633 
   93000    298.89439    320.02078    278.65101    -1757.114    1784.8268 
   94000     299.5832    319.64578    280.10374   -1785.7738    1819.9173 
   95000    299.39193    317.47076    278.44028   -1815.2565    1851.6848 
   96000    298.68944    314.32004     277.0418   -1846.8441    1899.7569 
   97000    299.39754    317.65445    281.63096   -1896.6055     1926.402 
   98000    299.03324     312.7532    281.96568    -1924.649    1963.8134 
   99000    299.72466    318.18831    281.45411   -1977.5856    1995.0479 
  100000    300.02834    322.02204    282.13448   -2016.4213    2040.5164 
  101000    299.48758    317.74572    282.37944   -2052.7543    2071.8134 
  102000    299.37888    314.54033    282.17611      -2096.7    2112.6715 
  103000    299.90506    322.79357    278.79332   -2134.7259    2136.5865 
  104000    299.51608    317.36157    283.90923   -2154.8728    2176.4535 
  105000    299.50838     315.2563    279.94876   -2199.9374    2214.5863 
  106000    299.89429    318.99016     281.7199   -2235.1083    2247.1334 
  107000    299.76697    315.50578    278.35205    -2277.546    2292.2725 
  108000    299.36957     315.4465    280.20404   -2313.5642    2329.0419 
  109000    299.41917    317.91083    278.11191   -2346.2729    2366.0216 
  110000    300.30802    320.56983    279.26983   -2385.5189    2403.7393 
  111000    299.79038    319.61584    281.72952   -2431.2562    2435.8795 
  112000    299.88973    320.76433    283.44333   -2470.5395    2465.7604 
  113000    300.39346    320.38894    278.49804   -2511.4373    2505.6607 
  114000    300.39665    314.83465    281.20432   -2544.6078    2540.1772 
  115000    300.25029    320.31748    280.36315   -2590.1557    2570.8617 
  116000    300.07949    316.48439    275.57103   -2624.7874    2609.4867 
  117000    299.61462    320.84237    279.60187   -2661.8213     2655.841 
  118000    299.61752    321.05301    284.58921   -2704.3625    2677.8261 
  119000    300.07352    321.52104     279.5267   -2747.1805    2716.3519 
  120000    300.34731    316.75464    283.05581   -2788.2112    2759.2897 
  121000    300.13617    320.63063    281.05898   -2823.6015    2805.4398 
  122000    300.33401    315.91698    286.35454   -2856.3058    2835.0871 
  123000     300.4337    320.26826    282.37591   -2894.2742    2883.0268 
  124000    299.90708    318.74481    283.45057   -2927.9477    2919.8073 
  125000    299.58668    314.54662    286.82589   -2966.7848    2961.1981 
  126000    300.45865    316.49635    287.26271    -3008.786    2993.4334 
  127000    299.90966    318.10403     282.4223   -3040.2331    3034.8701 
  128000    300.55027    325.75554    282.31628   -3096.9206    3073.6786 
  129000     299.1155    314.06323    280.13603   -3111.2628    3114.8904 
  130000    299.89802    316.94206    283.88557    -3159.303    3147.1439 
  131000     301.0121    321.63802    279.69666   -3207.2782    3184.1323 
  132000    299.84847    317.87681    281.73949   -3232.8066    3212.4392 
  133000    299.79275    317.78988    282.27826    -3271.078    3260.2881 
  134000    299.36281    315.67738    279.47369   -3315.1009     3293.668 
  135000    300.56183    322.04077    281.92712   -3349.5005    3325.6927 
  136000    300.42697    316.45851    279.24166   -3391.5457    3374.6045 
  137000    300.39512    319.72243    282.68694    -3431.969    3410.5037 
  138000     300.1919    314.66372    283.03312   -3461.5467    3454.7536 
  139000    299.86718    317.17097    279.09493   -3496.4663    3491.0197 
  140000    299.65501    323.03723    279.09125   -3533.9008    3530.1188 
  141000    298.91155    315.76952    283.07292   -3557.4157    3566.6287 
  142000    299.93988    320.25654    280.86186   -3593.7445    3602.8272 
  143000    299.55784    318.48161     278.8598   -3623.5658    3642.8863 
  144000    299.71001     318.5892    282.13056   -3655.9938    3688.2952 
  145000    299.26437    318.70317    278.95718   -3697.7021    3719.4133 
  145001    299.29079    318.90251    278.86807   -3697.9975     3719.499 
Loop time of 5802 on 32 procs for 100000 steps with 193600 atoms

Performance: 0.745 ns/day, 32.233 hours/ns, 17.235 timesteps/s
90.2% CPU use with 32 MPI tasks x no OpenMP threads

MPI task timing breakdown:
Section |  min time  |  avg time  |  max time  |%varavg| %total
---------------------------------------------------------------
Pair    | 4720.2     | 4794.6     | 4942.4     |  59.4 | 82.64
Neigh   | 0          | 0          | 0          |   0.0 |  0.00
Comm    | 403.68     | 567.65     | 684.69     | 326.3 |  9.78
Output  | 0.10085    | 0.10408    | 0.10839    |   0.6 |  0.00
Modify  | 298.98     | 412.02     | 534.26     | 371.2 |  7.10
Other   |            | 27.65      |            |       |  0.48

Nlocal:    6050 ave 6104 max 5982 min
Histogram: 1 2 2 3 5 4 6 1 5 3
Nghost:    5892.5 ave 5961 max 5839 min
Histogram: 3 5 1 6 4 5 3 2 2 1
Neighs:    0 ave 0 max 0 min
Histogram: 32 0 0 0 0 0 0 0 0 0
FullNghs:  212350 ave 214641 max 209627 min
Histogram: 1 2 3 2 7 5 3 3 3 3

Total # of neighbors = 6795188
Ave neighs/atom = 35.0991
Neighbor list builds = 0
Dangerous builds = 0

# thermal conductivity calculation
# reset langevin thermostats to zero energy accumulation
reset_timestep 0
thermo		$c
thermo		500000
compute		ke all ke/atom
variable	temp atom c_ke/1.5/8.617332478e-5
fix		hot all langevin ${thi} ${thi} ${tdamp} 389516 tally yes
fix		hot all langevin 319.9225 ${thi} ${tdamp} 389516 tally yes
fix		hot all langevin 319.9225 319.9225 ${tdamp} 389516 tally yes
fix		hot all langevin 319.9225 319.9225 0.05 389516 tally yes
fix_modify	hot temp Thot
fix		cold all langevin ${tlo} ${tlo} ${tdamp} 46579 tally yes
fix		cold all langevin 280.0775 ${tlo} ${tdamp} 46579 tally yes
fix		cold all langevin 280.0775 280.0775 ${tdamp} 46579 tally yes
fix		cold all langevin 280.0775 280.0775 0.05 46579 tally yes
fix_modify	cold temp Tcold

compute		ch all chunk/atom bin/1d x lower 0.02 units reduced
fix		11 all ave/chunk $a $b $c ch v_temp file sw_${P}.langevin
fix		11 all ave/chunk 100 $b $c ch v_temp file sw_${P}.langevin
fix		11 all ave/chunk 100 5000 $c ch v_temp file sw_${P}.langevin
fix		11 all ave/chunk 100 5000 500000 ch v_temp file sw_${P}.langevin
fix		11 all ave/chunk 100 5000 500000 ch v_temp file sw_26.langevin
thermo_style	custom step temp c_Thot c_Tcold f_hot f_cold

run		${t2nve}
run		500000
Per MPI rank memory allocation (min/avg/max) = 5.118 | 5.12 | 5.121 Mbytes
Step Temp c_Thot c_Tcold f_hot f_cold 
       0    299.29079    318.91546    279.01086           -0           -0 
  500000    299.73799    321.17009    284.75688   -19040.548    18974.602 
Loop time of 28819.5 on 32 procs for 500000 steps with 193600 atoms

Performance: 0.749 ns/day, 32.022 hours/ns, 17.349 timesteps/s
90.7% CPU use with 32 MPI tasks x no OpenMP threads

MPI task timing breakdown:
Section |  min time  |  avg time  |  max time  |%varavg| %total
---------------------------------------------------------------
Pair    | 23564      | 23964      | 24527      | 114.4 | 83.15
Neigh   | 0          | 0          | 0          |   0.0 |  0.00
Comm    | 1963.4     | 2732.7     | 3438.4     | 861.6 |  9.48
Output  | 0.000885   | 0.0018336  | 0.001999   |   0.4 |  0.00
Modify  | 1349.8     | 1980.4     | 2594.8     | 970.2 |  6.87
Other   |            | 142.3      |            |       |  0.49

Nlocal:    6050 ave 6089 max 5993 min
Histogram: 1 1 0 4 5 5 5 5 2 4
Nghost:    5892.5 ave 5950 max 5854 min
Histogram: 5 1 5 5 5 5 4 0 1 1
Neighs:    0 ave 0 max 0 min
Histogram: 32 0 0 0 0 0 0 0 0 0
FullNghs:  212288 ave 213759 max 210038 min
Histogram: 2 0 0 3 6 4 5 5 3 4

Total # of neighbors = 6793216
Ave neighs/atom = 35.0889
Neighbor list builds = 0
Dangerous builds = 0
clear
next		P
jump		Si.in
 units       metal
#----------------------------- User Input Variables --------------------------------------
################### Geometrical Parameters ###############################
variable	P index 25 26 27 28
variable	W equal 22
# Lattice Constant
variable	LC equal 5.43
# Length
variable	L equal 50
# Width
#variable	W equal 6
# Height
variable	H equal ${W}
variable	H equal 22
################### Simulation Condition ###############################
#DT/DX=cte
variable	cte equal 1.5938
log         sw_${P}.log
log         sw_27.log
