# temperature
variable	T equal 300
#cold region temperature
#variable        tlo equal 275
variable        tlo equal ${T}-${L}*${cte}/4.0
variable        tlo equal 300-${L}*${cte}/4.0
variable        tlo equal 300-50*${cte}/4.0
variable        tlo equal 300-50*1.5938/4.0
#hot region temperature
#variable        thi equal ${cte}*${L}/2+${tlo}
variable        thi equal ${T}+${L}*${cte}/4.0
variable        thi equal 300+${L}*${cte}/4.0
variable        thi equal 300+50*${cte}/4.0
variable        thi equal 300+50*1.5938/4.0

#time step (picoseconds)
variable	dt equal 0.0005 # 0.5 femtoseconds
#number of time steps for NPT
variable	tnpt equal 5000
#number of time steps for NVT
variable	tnvt equal 40000
#number of time steps for first NVE
variable	t1nve equal 100000
#number of time steps for second NVE
variable	t2nve equal 500000

################### Variable Based on LAMMPS Documentation ######################
variable	a equal 100
variable	c equal ${t2nve}
variable	c equal 500000
variable	b equal $c/$a
variable	b equal 500000/$a
variable	b equal 500000/100
variable	tdamp equal ${dt}*100
variable	tdamp equal 0.0005*100
variable	pdamp equal ${dt}*1000
variable	pdamp equal 0.0005*1000

#----------------------------------------------------------------------------------------
# setup problem
dimension       3
boundary        p p p
atom_style      atomic
lattice 	diamond ${LC} origin 0.0 0.0 0.0 orient x 1 0 0 orient y 0 1 0 orient z 0 0 1
lattice 	diamond 5.43 origin 0.0 0.0 0.0 orient x 1 0 0 orient y 0 1 0 orient z 0 0 1
Lattice spacing in x,y,z = 5.43 5.43 5.43
region          0 block 0 $L 0 $W 0 $H units lattice side in
region          0 block 0 50 0 $W 0 $H units lattice side in
region          0 block 0 50 0 22 0 $H units lattice side in
region          0 block 0 50 0 22 0 22 units lattice side in
create_box      1 0
Created orthogonal box = (0 0 0) to (271.5 119.46 119.46)
  8 by 2 by 2 MPI processor grid
create_atoms    1 region 0
Created 193600 atoms
mass		1 28.0855
#dump		1 all xyz 1000 Si_W_${W}nm.xyz
#dump_modify	1 element Si

############################################
pair_style   sw
pair_coeff   * * Si${P}.sw Si
pair_coeff   * * Si36.sw Si
thermo		100
thermo_style custom step lx
min_style cg
minimize 0.0 1.0e-8 10000 100000
WARNING: Using 'neigh_modify every 1 delay 0 check yes' setting during minimization (../min.cpp:168)
Neighbor list info ...
  update every 1 steps, delay 0 steps, check yes
  max neighbors/atom: 2000, page size: 100000
  master list distance cutoff = 5.64885
  ghost atom cutoff = 5.64885
  binsize = 2.82443, bins = 97 43 43
  1 neighbor lists, perpetual/occasional/extra = 1 0 0
  (1) pair sw, perpetual
      attributes: full, newton on
      pair build: full/bin/atomonly
      stencil: full/bin/3d
      bin: standard
Per MPI rank memory allocation (min/avg/max) = 5.239 | 5.239 | 5.239 Mbytes
Step Lx 
       0        271.5 
       1        271.5 
Loop time of 0.0415432 on 32 procs for 1 steps with 193600 atoms

76.7% CPU use with 32 MPI tasks x no OpenMP threads

Minimization stats:
  Stopping criterion = force tolerance
  Energy initial, next-to-last, final = 
        -700861.378017     -700861.378017     -700861.378017
  Force two-norm initial, final = 8.53285e-11 8.52675e-11
  Force max component initial, final = 4.96501e-13 4.9924e-13
  Final line search alpha, max atom move = 1 4.9924e-13
  Iterations, force evaluations = 1 2

MPI task timing breakdown:
Section |  min time  |  avg time  |  max time  |%varavg| %total
---------------------------------------------------------------
Pair    | 0.024399   | 0.02478    | 0.02572    |   0.2 | 59.65
Neigh   | 0          | 0          | 0          |   0.0 |  0.00
Comm    | 0.005668   | 0.0095646  | 0.013136   |   2.1 | 23.02
Output  | 0          | 0          | 0          |   0.0 |  0.00
Modify  | 0          | 0          | 0          |   0.0 |  0.00
Other   |            | 0.007199   |            |       | 17.33

Nlocal:    6050 ave 6050 max 6050 min
Histogram: 32 0 0 0 0 0 0 0 0 0
Nghost:    5892.5 ave 5893 max 5892 min
Histogram: 16 0 0 0 0 0 0 0 0 16
Neighs:    0 ave 0 max 0 min
Histogram: 32 0 0 0 0 0 0 0 0 0
FullNghs:  205700 ave 205700 max 205700 min
Histogram: 32 0 0 0 0 0 0 0 0 0

Total # of neighbors = 6582400
Ave neighs/atom = 34
Neighbor list builds = 0
Dangerous builds = 0
timestep     ${dt}
timestep     0.0005
velocity 	all create $T 492845
velocity 	all create 300 492845


fix 		NPT all npt temp $T $T ${tdamp} iso 0.0 0.0 ${pdamp}
fix 		NPT all npt temp 300 $T ${tdamp} iso 0.0 0.0 ${pdamp}
fix 		NPT all npt temp 300 300 ${tdamp} iso 0.0 0.0 ${pdamp}
fix 		NPT all npt temp 300 300 0.05 iso 0.0 0.0 ${pdamp}
fix 		NPT all npt temp 300 300 0.05 iso 0.0 0.0 0.5
thermo		100
thermo_style custom step lx press
run		${tnpt}
run		5000
Per MPI rank memory allocation (min/avg/max) = 4.114 | 4.114 | 4.114 Mbytes
Step Lx Press 
       1        271.5   -44568.182 
     100    268.57616   -14137.985 
     200    267.48949   -1627.3861 
     300    267.33396    29.024883 
     400    267.36456    215.20497 
     500    267.37564   -51.744587 
     600    267.39196    49.508792 
     700    267.40782    -8.669575 
     800    267.42497   -8.5942052 
     900    267.43477    112.83219 
    1000    267.45434    -24.82607 
    1100    267.47103    4.6128522 
    1200     267.4813    2.7210844 
    1300    267.49468    25.774149 
    1400    267.50268    26.739629 
    1500    267.50938   -34.539101 
    1600    267.50879    2.6511193 
    1700    267.50522   -19.664814 
    1800    267.49699    24.687762 
    1900    267.50113   -14.043937 
    2000    267.50083   -5.6536534 
    2100    267.50548   -2.6711921 
    2200    267.50624    -3.829042 
    2300    267.50606   -9.6738041 
    2400    267.50294   -8.6744482 
    2500     267.4994    15.334462 
    2600    267.50034   -13.409998 
    2700    267.49882    31.619527 
    2800    267.50985   -14.821012 
    2900    267.50542   -17.189783 
    3000    267.50293    21.052809 
    3100    267.50246   -32.195874 
    3200    267.49704     32.22808 
    3300    267.50651   -60.629561 
    3400    267.50007     77.33697 
    3500    267.50809   -68.758534 
    3600    267.50499    40.291262 
    3700    267.49664    3.5031604 
    3800    267.51187   -75.763254 
    3900    267.48737     122.4261 
    4000    267.51642   -145.10704 
    4100    267.49669    92.567954 
    4200    267.50696   -28.714344 
    4300    267.50598   -34.634971 
    4400    267.49634    57.458585 
    4500    267.50626   -59.960966 
    4600    267.49785    60.792504 
    4700    267.50722    -37.50313 
    4800      267.503    24.741832 
    4900     267.5041   -7.7747751 
    5000     267.5048   -23.807994 
    5001    267.50496   -26.096302 
Loop time of 85.3271 on 32 procs for 5000 steps with 193600 atoms

Performance: 2.531 ns/day, 9.481 hours/ns, 58.598 timesteps/s
75.3% CPU use with 32 MPI tasks x no OpenMP threads

MPI task timing breakdown:
Section |  min time  |  avg time  |  max time  |%varavg| %total
---------------------------------------------------------------
Pair    | 48.862     | 49.851     | 54.225     |  13.1 | 58.42
Neigh   | 0.058199   | 0.060622   | 0.064488   |   0.5 |  0.07
Comm    | 11.008     | 20.09      | 25.846     |  86.6 | 23.54
Output  | 0.029111   | 0.033862   | 0.036555   |   1.2 |  0.04
Modify  | 8.5522     | 14.242     | 22.416     | 101.1 | 16.69
Other   |            | 1.05       |            |       |  1.23

Nlocal:    6050 ave 6097 max 6002 min
Histogram: 2 2 5 2 5 4 3 4 3 2
Nghost:    5892.5 ave 5941 max 5846 min
Histogram: 2 3 4 2 5 4 3 4 3 2
Neighs:    0 ave 0 max 0 min
Histogram: 32 0 0 0 0 0 0 0 0 0
FullNghs:  205715 ave 207313 max 204086 min
Histogram: 2 4 3 2 5 5 2 4 3 2

Total # of neighbors = 6582876
Ave neighs/atom = 34.0025
Neighbor list builds = 5
Dangerous builds = 0
unfix		NPT
variable	length equal lx/${LC}
variable	length equal lx/5.43

################### Geometrical Parameters After Relaxation ###############################
# Thermostat_width
variable	TW equal ${length}/40
variable	TW equal 49.2642652126304/40
# Hot_Start
variable	hs equal ${length}/4-${TW}
variable	hs equal 49.2642652126304/4-${TW}
variable	hs equal 49.2642652126304/4-1.23160663031576
# Hot_End
variable	he equal ${length}/4+${TW}
variable	he equal 49.2642652126304/4+${TW}
variable	he equal 49.2642652126304/4+1.23160663031576
# Cold_Start
variable	cs equal 3*${length}/4-${TW}
variable	cs equal 3*49.2642652126304/4-${TW}
variable	cs equal 3*49.2642652126304/4-1.23160663031576
# Cold_End
variable	ce equal 3*${length}/4+${TW}
variable	ce equal 3*49.2642652126304/4+${TW}
variable	ce equal 3*49.2642652126304/4+1.23160663031576
###########################################################################################

################### Defining Thermostat ###################################################
region 		hot block ${hs} ${he} EDGE EDGE EDGE EDGE
region 		hot block 11.0844596728418 ${he} EDGE EDGE EDGE EDGE
region 		hot block 11.0844596728418 13.5476729334734 EDGE EDGE EDGE EDGE
region 		cold block ${cs} ${ce} EDGE EDGE EDGE EDGE
region 		cold block 35.716592279157 ${ce} EDGE EDGE EDGE EDGE
region 		cold block 35.716592279157 38.1798055397886 EDGE EDGE EDGE EDGE
group		test region cold
9560 atoms in group test
group		test1 region hot
9581 atoms in group test1
compute		Thot all temp/region hot
compute         Tcold all temp/region cold
###########################################################################################

fix		NVT all nvt temp $T $T ${tdamp}
fix		NVT all nvt temp 300 $T ${tdamp}
fix		NVT all nvt temp 300 300 ${tdamp}
fix		NVT all nvt temp 300 300 0.05
thermo		1000
thermo_style	custom step temp
run		${tnvt}
run		40000
Per MPI rank memory allocation (min/avg/max) = 4.118 | 4.12 | 4.121 Mbytes
Step Temp 
    5001    299.36848 
    6000    298.75892 
    7000    300.94363 
    8000    300.75789 
    9000    300.75622 
   10000    298.80232 
   11000    300.48192 
   12000    299.84167 
   13000    300.74615 
   14000    300.76907 
   15000    299.97508 
   16000    300.06931 
   17000    300.39474 
   18000    299.87596 
   19000    301.02104 
   20000    299.00078 
   21000    298.10585 
   22000    300.32514 
   23000    299.95578 
   24000    299.61103 
   25000    301.69212 
   26000    299.71371 
   27000     299.7299 
   28000    301.82057 
   29000    301.16642 
   30000    299.50519 
   31000    299.30717 
   32000    298.47915 
   33000    300.46759 
   34000    300.41833 
   35000    300.02106 
   36000    300.25587 
   37000    300.23107 
   38000    300.22778 
   39000    300.35858 
   40000    300.80716 
   41000    299.76341 
   42000    300.30135 
   43000    300.00206 
   44000    299.18958 
   45000    300.12498 
   45001      300.096 
Loop time of 637.235 on 32 procs for 40000 steps with 193600 atoms

Performance: 2.712 ns/day, 8.850 hours/ns, 62.771 timesteps/s
77.5% CPU use with 32 MPI tasks x no OpenMP threads

MPI task timing breakdown:
Section |  min time  |  avg time  |  max time  |%varavg| %total
---------------------------------------------------------------
Pair    | 393.57     | 400.33     | 408.7      |  19.3 | 62.82
Neigh   | 0          | 0          | 0          |   0.0 |  0.00
Comm    | 104.09     | 152.83     | 192.19     | 217.9 | 23.98
Output  | 0.023305   | 0.025526   | 0.028135   |   1.0 |  0.00
Modify  | 29.606     | 70.131     | 112.64     | 307.0 | 11.01
Other   |            | 13.91      |            |       |  2.18

Nlocal:    6050 ave 6108 max 6006 min
Histogram: 4 4 4 3 2 6 5 3 0 1
Nghost:    5892.5 ave 5936 max 5835 min
Histogram: 1 0 3 5 6 2 3 3 5 4
Neighs:    0 ave 0 max 0 min
Histogram: 32 0 0 0 0 0 0 0 0 0
FullNghs:  206531 ave 208575 max 204970 min
Histogram: 4 5 2 3 3 5 6 3 0 1

Total # of neighbors = 6608986
Ave neighs/atom = 34.1373
Neighbor list builds = 0
Dangerous builds = 0
velocity	all scale $T
velocity	all scale 300
unfix		NVT

fix		NVE all nve
fix		hot all langevin ${thi} ${thi} ${tdamp} 389516 tally yes
fix		hot all langevin 319.9225 ${thi} ${tdamp} 389516 tally yes
fix		hot all langevin 319.9225 319.9225 ${tdamp} 389516 tally yes
fix		hot all langevin 319.9225 319.9225 0.05 389516 tally yes
fix_modify	hot temp Thot
fix		cold all langevin ${tlo} ${tlo} ${tdamp} 46579 tally yes
fix		cold all langevin 280.0775 ${tlo} ${tdamp} 46579 tally yes
fix		cold all langevin 280.0775 280.0775 ${tdamp} 46579 tally yes
fix		cold all langevin 280.0775 280.0775 0.05 46579 tally yes
fix_modify	cold temp Tcold

thermo_style	custom step temp c_Thot c_Tcold f_hot f_cold
run		${t1nve}
run		100000
Per MPI rank memory allocation (min/avg/max) = 4.868 | 4.87 | 4.871 Mbytes
Step Temp c_Thot c_Tcold f_hot f_cold 
   45001          300    298.05822     300.6623           -0           -0 
   46000    299.57159    321.45541    281.66011   -77.541474    75.032002 
   47000    299.52599    314.70656    283.75353   -86.748954     103.2195 
   48000    298.63975    318.85522    277.16942   -114.38167    134.22021 
   49000     300.6166    319.72161    281.16849   -143.56247    153.36344 
   50000    299.63177    320.37455    277.91552   -163.64923    175.34143 
   51000    299.87652    315.73654    281.92196   -190.85512    195.19956 
   52000     300.2062    317.82606    280.35564   -208.53633    225.46824 
   53000    300.31422    318.45416    280.94155   -245.88787    260.23397 
   54000    299.77755    316.18818    281.09857   -271.08763    297.57877 
   55000    299.79715    322.36785    282.91972    -313.8438    324.42133 
   56000    299.98081     320.5099    283.96831   -335.46411     359.1412 
   57000    299.32347    316.33805    280.40907   -364.97749     395.1717 
   58000    299.31617    318.70676     279.0052   -398.91834    434.05643 
   59000    299.38618    320.13793    280.61805   -441.68382    474.99544 
   60000    299.81055    317.22274    281.47438     -466.567    510.86983 
   61000    298.74408    317.96486    281.89446   -482.34658    543.36712 
   62000    298.85944    320.17972    283.62128    -527.1914    582.27192 
   63000    299.18224    316.29896    280.27767   -560.35765    621.21222 
   64000    298.98416    321.57418    279.45263   -599.73143    655.46098 
   65000    299.32231    320.16636     280.9506    -628.3049    687.10483 
   66000    299.40975    319.65748    280.52848   -662.52471    725.22248 
   67000     299.3586    318.53908    281.52403   -687.66519    755.64459 
   68000    299.29592    322.01253    280.98775   -725.35876    797.90302 
   69000    298.90343    315.94119    283.93916   -745.32656    820.65078 
   70000    298.54371    315.24882    279.49205   -779.64724    856.58809 
   71000    298.23347    321.29213    285.39394   -820.01061    885.31075 
   72000    298.50321    319.48149     280.0174    -845.5559    929.51274 
   73000    299.51499    317.68489    280.49734   -890.40495     957.3677 
   74000    299.44708     318.8692    280.21301    -928.1181    990.94127 
   75000     299.0364    313.73534      278.467   -950.46687     1025.162 
   76000     299.2599    318.82528    287.70236   -993.57653    1052.0135 
   77000    298.55577     320.8441     277.9356   -1037.3091    1096.7965 
   78000    299.13612    316.81579    285.52038     -1063.08    1126.5848 
   79000        298.9    320.60203    280.41051   -1106.5666    1159.1462 
   80000    299.51088    325.31123    276.71144   -1158.9794    1197.6506 
   81000     299.6208    317.33344    281.88986   -1183.3039    1232.9466 
   82000    298.60873    311.84421     280.5184   -1201.9943    1272.2979 
   83000    297.78137    319.80017    280.39913   -1243.8767    1315.3725 
   84000    299.57529    320.19652    283.02796   -1284.5389    1340.8164 
   85000    298.44935    319.19314    280.82954   -1312.6778    1371.6078 
   86000     298.6653    318.42406    279.82941   -1347.2409    1407.7533 
   87000    299.12258    316.89077    281.28916   -1385.8753    1440.7104 
   88000     299.2666    314.48131    279.19236    -1416.744    1462.7208 
   89000    298.91258    316.87244    282.38879   -1446.1697    1497.7371 
   90000    298.78677    316.57663    282.54668   -1485.3465    1539.1883 
   91000     299.4229    319.58683    280.14235   -1529.1414     1585.378 
   92000    299.53231    317.74642    279.23619   -1559.6911    1621.2564 
   93000    299.28347      317.206    282.86479   -1585.9236    1646.2222 
   94000    298.88471    324.23989    282.53486   -1635.6208    1689.0854 
   95000    299.48711    322.68963    280.60535   -1671.2785    1725.1821 
   96000    298.62445    317.40943    282.28364   -1704.1481    1764.6562 
   97000    299.26125    319.72654    280.84981   -1740.6116    1796.6006 
   98000    298.92797    316.71519    277.79216   -1767.3741    1834.7105 
   99000    299.40321    316.16741    284.63531   -1807.7623    1852.3073 
  100000    298.12022    322.82499    279.99179    -1838.129    1894.7568 
  101000    298.50115    316.16705    279.34153   -1864.8832    1929.5684 
  102000    299.44434    317.70413    283.97195   -1905.3466    1950.8245 
  103000    299.56998    321.44382    282.77652    -1931.805    1977.0539 
  104000     300.0643    317.49199    282.08638   -1980.1007    2025.9651 
  105000    299.18242    316.11242    282.25712   -2014.2298    2057.0412 
  106000    298.51276    321.26582    277.73667   -2053.0043    2100.7747 
  107000     299.9768    319.41225    283.40785   -2082.2006    2124.3925 
  108000     299.8262    318.88881    280.56872   -2120.0238    2156.2758 
  109000    299.49065    320.56817    286.87286   -2161.4708    2182.3663 
  110000    300.15274    319.37221    282.06759   -2192.6518    2216.8314 
  111000    300.24736    319.09497      280.172   -2235.3624    2253.1982 
  112000    299.60215    320.80181      283.746   -2272.7635    2285.3877 
  113000    300.86193    316.54132    282.31365   -2302.8621    2321.3494 
  114000    300.75137    321.35755    284.72656   -2352.2277    2344.8742 
  115000    299.50195    318.15562    283.34655   -2379.6214    2379.5461 
  116000    299.71834    317.95141     281.4193   -2404.5329    2421.3724 
  117000    299.50558    319.08327    278.78751   -2432.2528     2460.885 
  118000    300.35998    315.91312    284.31191   -2464.2753    2491.0231 
  119000     298.6736    319.15888    279.86426   -2497.7249    2539.8483 
  120000    300.44974    324.61816    281.71051   -2539.0389    2558.3188 
  121000    299.56842     314.8336    284.45071   -2570.3233    2597.1755 
  122000    300.39894    317.30927    283.37059   -2604.4939     2629.158 
  123000    299.31215    315.71882    281.63086   -2640.7232     2669.805 
  124000    299.93121    320.85493    278.78289    -2691.994    2704.0053 
  125000    300.22277    317.89785    285.38049   -2710.6936    2728.2834 
  126000    299.27768    317.47575    275.77697    -2743.793    2775.3254 
  127000    299.53117    325.07638    282.68791   -2789.1454    2797.1175 
  128000     299.8395    319.75363    287.41436   -2815.7909    2839.9321 
  129000    299.36762    320.60546    281.30323   -2844.4629    2873.0029 
  130000     299.0381    314.70829    282.24786   -2870.1439    2898.8716 
  131000     300.5257    315.34783    283.47401   -2910.9891    2932.9498 
  132000     299.7711    317.80657    280.30304   -2949.2364    2977.8337 
  133000    299.29044    313.11743    283.71412   -2980.5369    3010.8533 
  134000    299.82055     318.9934    282.73253   -3027.1472    3041.8437 
  135000    299.41192    318.81024    282.31827   -3066.8871    3084.0913 
  136000    299.97782    323.61684    281.38336   -3103.8452    3131.0138 
  137000    299.67951    315.16805    279.90588    -3122.622    3168.5173 
  138000    300.01478    318.32463    285.39488   -3176.1218     3187.305 
  139000    299.93043    319.06513     280.6755   -3210.7188    3230.0589 
  140000    299.36736     316.5201    279.07235   -3232.6712      3272.29 
  141000    299.36516     318.9817    276.66909   -3268.9832    3308.3877 
  142000     299.4097    319.73507    281.77542    -3298.146    3341.5283 
  143000    299.29466    320.85157    280.45304   -3336.1401    3379.9357 
  144000     300.0998    318.58397    284.67841   -3378.0521    3408.2539 
  145000    299.92686    324.00913    282.45099   -3420.5577    3442.7879 
  145001    299.92223     323.8006    281.94215   -3420.6686    3443.5346 
Loop time of 1721.75 on 32 procs for 100000 steps with 193600 atoms

Performance: 2.509 ns/day, 9.565 hours/ns, 58.080 timesteps/s
78.2% CPU use with 32 MPI tasks x no OpenMP threads

MPI task timing breakdown:
Section |  min time  |  avg time  |  max time  |%varavg| %total
---------------------------------------------------------------
Pair    | 976.31     | 1002.4     | 1032.3     |  37.8 | 58.22
Neigh   | 0          | 0          | 0          |   0.0 |  0.00
Comm    | 251.38     | 376.04     | 469.64     | 356.4 | 21.84
Output  | 0.098938   | 0.10653    | 0.11127    |   1.1 |  0.01
Modify  | 212.73     | 308.58     | 410.69     | 366.0 | 17.92
Other   |            | 34.66      |            |       |  2.01

Nlocal:    6050 ave 6105 max 5985 min
Histogram: 1 2 4 1 4 6 4 7 1 2
Nghost:    5892.5 ave 5958 max 5837 min
Histogram: 2 1 6 5 5 5 1 4 2 1
Neighs:    0 ave 0 max 0 min
Histogram: 32 0 0 0 0 0 0 0 0 0
FullNghs:  206560 ave 208467 max 204244 min
Histogram: 1 2 4 1 4 6 4 7 1 2

Total # of neighbors = 6609932
Ave neighs/atom = 34.1422
Neighbor list builds = 0
Dangerous builds = 0

# thermal conductivity calculation
# reset langevin thermostats to zero energy accumulation
reset_timestep 0
thermo		$c
thermo		500000
compute		ke all ke/atom
variable	temp atom c_ke/1.5/8.617332478e-5
fix		hot all langevin ${thi} ${thi} ${tdamp} 389516 tally yes
fix		hot all langevin 319.9225 ${thi} ${tdamp} 389516 tally yes
fix		hot all langevin 319.9225 319.9225 ${tdamp} 389516 tally yes
fix		hot all langevin 319.9225 319.9225 0.05 389516 tally yes
fix_modify	hot temp Thot
fix		cold all langevin ${tlo} ${tlo} ${tdamp} 46579 tally yes
fix		cold all langevin 280.0775 ${tlo} ${tdamp} 46579 tally yes
fix		cold all langevin 280.0775 280.0775 ${tdamp} 46579 tally yes
fix		cold all langevin 280.0775 280.0775 0.05 46579 tally yes
fix_modify	cold temp Tcold

compute		ch all chunk/atom bin/1d x lower 0.02 units reduced
fix		11 all ave/chunk $a $b $c ch v_temp file sw_${P}.langevin
fix		11 all ave/chunk 100 $b $c ch v_temp file sw_${P}.langevin
fix		11 all ave/chunk 100 5000 $c ch v_temp file sw_${P}.langevin
fix		11 all ave/chunk 100 5000 500000 ch v_temp file sw_${P}.langevin
fix		11 all ave/chunk 100 5000 500000 ch v_temp file sw_36.langevin
thermo_style	custom step temp c_Thot c_Tcold f_hot f_cold

run		${t2nve}
run		500000
Per MPI rank memory allocation (min/avg/max) = 5.118 | 5.12 | 5.121 Mbytes
Step Temp c_Thot c_Tcold f_hot f_cold 
       0    299.92223    324.06143    281.73295           -0           -0 
  500000     300.2343    323.54332    281.14269    -17907.42    17907.575 
Loop time of 8582.39 on 32 procs for 500000 steps with 193600 atoms

Performance: 2.517 ns/day, 9.536 hours/ns, 58.259 timesteps/s
78.4% CPU use with 32 MPI tasks x no OpenMP threads

MPI task timing breakdown:
Section |  min time  |  avg time  |  max time  |%varavg| %total
---------------------------------------------------------------
Pair    | 4934.3     | 5013.4     | 5119.3     |  67.0 | 58.41
Neigh   | 0          | 0          | 0          |   0.0 |  0.00
Comm    | 1285.1     | 1905.5     | 2379.2     | 810.5 | 22.20
Output  | 0.000895   | 0.0019049  | 0.002003   |   0.4 |  0.00
Modify  | 1040.6     | 1494.5     | 2040       | 855.8 | 17.41
Other   |            | 169        |            |       |  1.97

Nlocal:    6050 ave 6089 max 6008 min
Histogram: 1 2 4 4 4 5 3 5 2 2
Nghost:    5891.94 ave 5934 max 5854 min
Histogram: 2 3 4 3 6 4 3 4 2 1
Neighs:    0 ave 0 max 0 min
Histogram: 32 0 0 0 0 0 0 0 0 0
FullNghs:  206570 ave 207867 max 205186 min
Histogram: 2 1 4 5 3 5 4 2 4 2

Total # of neighbors = 6610230
Ave neighs/atom = 34.1437
Neighbor list builds = 0
Dangerous builds = 0
clear
next		P
jump		Si.in
Total wall time: 17:26:01
