# temperature
variable	T equal 300
#cold region temperature
#variable        tlo equal 275
variable        tlo equal ${T}-${L}*${cte}/4.0
variable        tlo equal 300-${L}*${cte}/4.0
variable        tlo equal 300-50*${cte}/4.0
variable        tlo equal 300-50*1.5938/4.0
#hot region temperature
#variable        thi equal ${cte}*${L}/2+${tlo}
variable        thi equal ${T}+${L}*${cte}/4.0
variable        thi equal 300+${L}*${cte}/4.0
variable        thi equal 300+50*${cte}/4.0
variable        thi equal 300+50*1.5938/4.0

#time step (picoseconds)
variable	dt equal 0.0005 # 0.5 femtoseconds
#number of time steps for NPT
variable	tnpt equal 5000
#number of time steps for NVT
variable	tnvt equal 40000
#number of time steps for first NVE
variable	t1nve equal 100000
#number of time steps for second NVE
variable	t2nve equal 500000

################### Variable Based on LAMMPS Documentation ######################
variable	a equal 100
variable	c equal ${t2nve}
variable	c equal 500000
variable	b equal $c/$a
variable	b equal 500000/$a
variable	b equal 500000/100
variable	tdamp equal ${dt}*100
variable	tdamp equal 0.0005*100
variable	pdamp equal ${dt}*1000
variable	pdamp equal 0.0005*1000

#----------------------------------------------------------------------------------------
# setup problem
dimension       3
boundary        p p p
atom_style      atomic
lattice 	diamond ${LC} origin 0.0 0.0 0.0 orient x 1 0 0 orient y 0 1 0 orient z 0 0 1
lattice 	diamond 5.43 origin 0.0 0.0 0.0 orient x 1 0 0 orient y 0 1 0 orient z 0 0 1
Lattice spacing in x,y,z = 5.43 5.43 5.43
region          0 block 0 $L 0 $W 0 $H units lattice side in
region          0 block 0 50 0 $W 0 $H units lattice side in
region          0 block 0 50 0 22 0 $H units lattice side in
region          0 block 0 50 0 22 0 22 units lattice side in
create_box      1 0
Created orthogonal box = (0 0 0) to (271.5 119.46 119.46)
  8 by 2 by 2 MPI processor grid
create_atoms    1 region 0
Created 193600 atoms
mass		1 28.0855
#dump		1 all xyz 1000 Si_W_${W}nm.xyz
#dump_modify	1 element Si

############################################
pair_style   sw
pair_coeff   * * Si${P}.sw Si
pair_coeff   * * Si32.sw Si
thermo		100
thermo_style custom step lx
min_style cg
minimize 0.0 1.0e-8 10000 100000
WARNING: Using 'neigh_modify every 1 delay 0 check yes' setting during minimization (../min.cpp:168)
Neighbor list info ...
  update every 1 steps, delay 0 steps, check yes
  max neighbors/atom: 2000, page size: 100000
  master list distance cutoff = 5.78048
  ghost atom cutoff = 5.78048
  binsize = 2.89024, bins = 94 42 42
  1 neighbor lists, perpetual/occasional/extra = 1 0 0
  (1) pair sw, perpetual
      attributes: full, newton on
      pair build: full/bin/atomonly
      stencil: full/bin/3d
      bin: standard
Per MPI rank memory allocation (min/avg/max) = 5.239 | 5.24 | 5.242 Mbytes
Step Lx 
       0        271.5 
       1        271.5 
Loop time of 0.0424716 on 32 procs for 1 steps with 193600 atoms

73.6% CPU use with 32 MPI tasks x no OpenMP threads

Minimization stats:
  Stopping criterion = force tolerance
  Energy initial, next-to-last, final = 
        -844555.488458     -844555.488458     -844555.488458
  Force two-norm initial, final = 8.73551e-11 8.72935e-11
  Force max component initial, final = 5.07724e-13 5.10195e-13
  Final line search alpha, max atom move = 1 5.10195e-13
  Iterations, force evaluations = 1 2

MPI task timing breakdown:
Section |  min time  |  avg time  |  max time  |%varavg| %total
---------------------------------------------------------------
Pair    | 0.024677   | 0.025044   | 0.02579    |   0.2 | 58.97
Neigh   | 0          | 0          | 0          |   0.0 |  0.00
Comm    | 0.007077   | 0.010229   | 0.013476   |   1.9 | 24.08
Output  | 0          | 0          | 0          |   0.0 |  0.00
Modify  | 0          | 0          | 0          |   0.0 |  0.00
Other   |            | 0.007198   |            |       | 16.95

Nlocal:    6050 ave 6050 max 6050 min
Histogram: 32 0 0 0 0 0 0 0 0 0
Nghost:    5892.5 ave 5893 max 5892 min
Histogram: 16 0 0 0 0 0 0 0 0 16
Neighs:    0 ave 0 max 0 min
Histogram: 32 0 0 0 0 0 0 0 0 0
FullNghs:  205700 ave 205700 max 205700 min
Histogram: 32 0 0 0 0 0 0 0 0 0

Total # of neighbors = 6582400
Ave neighs/atom = 34
Neighbor list builds = 0
Dangerous builds = 0
timestep     ${dt}
timestep     0.0005
velocity 	all create $T 492845
velocity 	all create 300 492845


fix 		NPT all npt temp $T $T ${tdamp} iso 0.0 0.0 ${pdamp}
fix 		NPT all npt temp 300 $T ${tdamp} iso 0.0 0.0 ${pdamp}
fix 		NPT all npt temp 300 300 ${tdamp} iso 0.0 0.0 ${pdamp}
fix 		NPT all npt temp 300 300 0.05 iso 0.0 0.0 ${pdamp}
fix 		NPT all npt temp 300 300 0.05 iso 0.0 0.0 0.5
thermo		100
thermo_style custom step lx press
run		${tnpt}
run		5000
Per MPI rank memory allocation (min/avg/max) = 4.114 | 4.115 | 4.117 Mbytes
Step Lx Press 
       1        271.5    500.22189 
     100    271.47085   -54.384497 
     200    271.59073   -623.66968 
     300    271.42786    824.11005 
     400    271.59375    -556.0162 
     500    271.51414    158.58247 
     600    271.54536    92.032628 
     700    271.57968    -157.2057 
     800    271.54766    185.02089 
     900    271.61546   -262.55758 
    1000    271.57243    245.73098 
    1100    271.61099   -24.323023 
    1200     271.6349   -198.10423 
    1300    271.60237    302.79811 
    1400    271.65039   -171.73875 
    1500    271.63449    33.357509 
    1600     271.6369    36.764492 
    1700     271.6437   -69.732079 
    1800    271.62511    94.717954 
    1900    271.64372   -135.12848 
    2000    271.62355    123.24722 
    2100    271.64066   -45.933892 
    2200    271.64037   -37.546225 
    2300    271.63101    95.781478 
    2400    271.64192   -80.421113 
    2500     271.6293    45.968013 
    2600    271.63506    3.8320501 
    2700     271.6377   -30.182947 
    2800    271.63485    34.269263 
    2900      271.636   -33.040932 
    3000    271.63564    15.355432 
    3100    271.63842   -13.947966 
    3200     271.6363   -40.063099 
    3300    271.62667     93.43011 
    3400    271.64568   -116.23418 
    3500    271.62485    84.805154 
    3600    271.64698   -43.855501 
    3700    271.62573    42.031849 
    3800    271.65048   -94.340273 
    3900    271.61369    157.98539 
    4000    271.65576   -165.03879 
    4100    271.61709    132.64724 
    4200    271.65176   -108.99977 
    4300    271.62377    95.420398 
    4400    271.64626    -110.2705 
    4500    271.62771    81.322139 
    4600    271.63533   -28.269157 
    4700    271.64112   -51.427344 
    4800     271.6258    93.796573 
    4900    271.64579   -90.472387 
    5000    271.63215     35.55073 
    5001    271.63219    33.481406 
Loop time of 137.1 on 32 procs for 5000 steps with 193600 atoms

Performance: 1.575 ns/day, 15.233 hours/ns, 36.470 timesteps/s
82.2% CPU use with 32 MPI tasks x no OpenMP threads

MPI task timing breakdown:
Section |  min time  |  avg time  |  max time  |%varavg| %total
---------------------------------------------------------------
Pair    | 96.269     | 97.666     | 102.68     |  11.4 | 71.24
Neigh   | 0          | 0          | 0          |   0.0 |  0.00
Comm    | 13.127     | 22.402     | 29.628     | 101.9 | 16.34
Output  | 0.029808   | 0.033556   | 0.035817   |   1.1 |  0.02
Modify  | 8.9853     | 15.931     | 24.896     | 121.7 | 11.62
Other   |            | 1.066      |            |       |  0.78

Nlocal:    6050 ave 6050 max 6050 min
Histogram: 32 0 0 0 0 0 0 0 0 0
Nghost:    5892.5 ave 5893 max 5892 min
Histogram: 16 0 0 0 0 0 0 0 0 16
Neighs:    0 ave 0 max 0 min
Histogram: 32 0 0 0 0 0 0 0 0 0
FullNghs:  205700 ave 205700 max 205700 min
Histogram: 32 0 0 0 0 0 0 0 0 0

Total # of neighbors = 6582400
Ave neighs/atom = 34
Neighbor list builds = 0
Dangerous builds = 0
unfix		NPT
variable	length equal lx/${LC}
variable	length equal lx/5.43

################### Geometrical Parameters After Relaxation ###############################
# Thermostat_width
variable	TW equal ${length}/40
variable	TW equal 50.0243450985666/40
# Hot_Start
variable	hs equal ${length}/4-${TW}
variable	hs equal 50.0243450985666/4-${TW}
variable	hs equal 50.0243450985666/4-1.25060862746417
# Hot_End
variable	he equal ${length}/4+${TW}
variable	he equal 50.0243450985666/4+${TW}
variable	he equal 50.0243450985666/4+1.25060862746417
# Cold_Start
variable	cs equal 3*${length}/4-${TW}
variable	cs equal 3*50.0243450985666/4-${TW}
variable	cs equal 3*50.0243450985666/4-1.25060862746417
# Cold_End
variable	ce equal 3*${length}/4+${TW}
variable	ce equal 3*50.0243450985666/4+${TW}
variable	ce equal 3*50.0243450985666/4+1.25060862746417
###########################################################################################

################### Defining Thermostat ###################################################
region 		hot block ${hs} ${he} EDGE EDGE EDGE EDGE
region 		hot block 11.2554776471775 ${he} EDGE EDGE EDGE EDGE
region 		hot block 11.2554776471775 13.7566949021058 EDGE EDGE EDGE EDGE
region 		cold block ${cs} ${ce} EDGE EDGE EDGE EDGE
region 		cold block 36.2676501964608 ${ce} EDGE EDGE EDGE EDGE
region 		cold block 36.2676501964608 38.7688674513891 EDGE EDGE EDGE EDGE
group		test region cold
9564 atoms in group test
group		test1 region hot
9551 atoms in group test1
compute		Thot all temp/region hot
compute         Tcold all temp/region cold
###########################################################################################

fix		NVT all nvt temp $T $T ${tdamp}
fix		NVT all nvt temp 300 $T ${tdamp}
fix		NVT all nvt temp 300 300 ${tdamp}
fix		NVT all nvt temp 300 300 0.05
thermo		1000
thermo_style	custom step temp
run		${tnvt}
run		40000
Per MPI rank memory allocation (min/avg/max) = 4.116 | 4.119 | 4.121 Mbytes
Step Temp 
    5001    301.18135 
    6000    298.78998 
    7000    299.40874 
    8000    301.51017 
    9000    301.55126 
   10000    298.86707 
   11000    301.75744 
   12000     299.3273 
   13000    298.77517 
   14000    300.61965 
   15000    300.47444 
   16000    299.77284 
   17000    298.71001 
   18000    300.66867 
   19000    299.79971 
   20000    300.07343 
   21000    300.09566 
   22000    298.74323 
   23000    300.63925 
   24000    299.70004 
   25000    299.73682 
   26000    300.26236 
   27000    301.32154 
   28000    300.23548 
   29000    299.38134 
   30000    300.46358 
   31000     299.2149 
   32000    299.01142 
   33000    300.06348 
   34000     301.5617 
   35000    299.42007 
   36000    300.81301 
   37000    298.92725 
   38000    300.11365 
   39000    301.40714 
   40000    299.55833 
   41000    299.46703 
   42000    300.04907 
   43000    299.17925 
   44000    299.66263 
   45000    299.63382 
   45001    299.57701 
Loop time of 1078.53 on 32 procs for 40000 steps with 193600 atoms

Performance: 1.602 ns/day, 14.980 hours/ns, 37.088 timesteps/s
84.3% CPU use with 32 MPI tasks x no OpenMP threads

MPI task timing breakdown:
Section |  min time  |  avg time  |  max time  |%varavg| %total
---------------------------------------------------------------
Pair    | 795.84     | 805.38     | 815.66     |  16.9 | 74.67
Neigh   | 0          | 0          | 0          |   0.0 |  0.00
Comm    | 116.87     | 173.38     | 212.65     | 233.8 | 16.08
Output  | 0.023963   | 0.026      | 0.028939   |   1.0 |  0.00
Modify  | 45.058     | 85.062     | 135.67     | 317.3 |  7.89
Other   |            | 14.68      |            |       |  1.36

Nlocal:    6050 ave 6095 max 5983 min
Histogram: 1 0 4 1 3 5 5 7 3 3
Nghost:    5892.5 ave 5960 max 5847 min
Histogram: 3 3 7 5 5 3 1 4 0 1
Neighs:    0 ave 0 max 0 min
Histogram: 32 0 0 0 0 0 0 0 0 0
FullNghs:  209628 ave 211293 max 207261 min
Histogram: 2 0 3 2 3 4 6 7 3 2

Total # of neighbors = 6708102
Ave neighs/atom = 34.6493
Neighbor list builds = 0
Dangerous builds = 0
velocity	all scale $T
velocity	all scale 300
unfix		NVT

fix		NVE all nve
fix		hot all langevin ${thi} ${thi} ${tdamp} 389516 tally yes
fix		hot all langevin 319.9225 ${thi} ${tdamp} 389516 tally yes
fix		hot all langevin 319.9225 319.9225 ${tdamp} 389516 tally yes
fix		hot all langevin 319.9225 319.9225 0.05 389516 tally yes
fix_modify	hot temp Thot
fix		cold all langevin ${tlo} ${tlo} ${tdamp} 46579 tally yes
fix		cold all langevin 280.0775 ${tlo} ${tdamp} 46579 tally yes
fix		cold all langevin 280.0775 280.0775 ${tdamp} 46579 tally yes
fix		cold all langevin 280.0775 280.0775 0.05 46579 tally yes
fix_modify	cold temp Tcold

thermo_style	custom step temp c_Thot c_Tcold f_hot f_cold
run		${t1nve}
run		100000
Per MPI rank memory allocation (min/avg/max) = 4.868 | 4.869 | 4.871 Mbytes
Step Temp c_Thot c_Tcold f_hot f_cold 
   45001          300    296.57583    299.77201           -0           -0 
   46000    301.04903     318.7186    278.77722   -71.728178    68.094034 
   47000    299.48792    315.87893     279.5529   -98.397121    85.022585 
   48000     299.9486    318.31721    278.74505    -120.1773    114.60859 
   49000    300.14796    320.50801    280.96321   -131.30893    128.18023 
   50000    300.22674    317.26614    287.55043   -149.72026    137.58137 
   51000    300.85968    321.23907    283.64591   -163.75609    166.37763 
   52000    300.37598    314.93664     284.1377   -193.57709    191.40325 
   53000    300.62631    319.48178    280.51418   -218.49042    217.02645 
   54000    300.41782    320.99874    280.98706   -242.79972    246.53321 
   55000    299.43624    316.75872    281.85677   -266.35715    285.38206 
   56000    299.71907     318.6194     282.3982   -296.61471    298.22205 
   57000    301.04459     321.6579    279.98305   -326.77878    319.87746 
   58000    300.06872    318.08764    276.21579   -357.58713      353.313 
   59000    300.45082    317.34232    279.15706   -383.26945    377.99316 
   60000    300.58758    322.21603    281.85441   -425.32672    398.68766 
   61000    300.13074    317.06387    280.64641   -441.42456    434.99062 
   62000    299.98055    319.03303     281.6458   -475.36774    456.59225 
   63000    300.47209    319.21755    277.72063   -505.68469    493.46539 
   64000    301.12066    322.59516    284.90726   -543.66121    526.37582 
   65000    299.56487    319.80235    279.09373   -571.54865    566.29679 
   66000    300.13889    316.90121    284.66461     -589.914    590.64131 
   67000    300.26155    319.27473    282.22137   -626.84147    618.38429 
   68000    300.65683    317.07445    281.74149    -655.0756     655.9552 
   69000    300.41609    317.31841    279.65325   -693.65222    686.79925 
   70000    300.66645    322.30814    281.92963   -729.21057    727.87147 
   71000    300.65141    321.27938    280.95905   -767.66925    751.80586 
   72000    299.82951    316.98135    282.26374   -777.58631    785.74466 
   73000    300.23688    320.61213    281.58179   -819.42101    816.20907 
   74000     300.6965    322.30011    280.33984   -847.57924    846.76794 
   75000    300.24756     317.3356    279.58623   -876.59507    879.02913 
   76000    301.17863    321.37096    284.81373   -917.23482    903.83225 
   77000    300.27201     314.8438    283.36884    -938.4564    927.49638 
   78000    301.06023    318.43871    282.20013   -969.87959    958.24844 
   79000    301.27921    320.40749    283.06165   -1007.6709    989.47041 
   80000    300.30692    315.93508    282.15757   -1037.1735    1024.8912 
   81000    299.76993     316.9591    279.89156   -1069.2215    1063.3732 
   82000    299.81396    314.10904    283.08605    -1093.288    1098.9612 
   83000     300.1363    317.64138    282.96949   -1130.6444    1130.7539 
   84000    300.22411    316.94058    286.47944   -1159.7181    1150.4493 
   85000    299.43837    318.63917    278.90385   -1194.9621    1195.9055 
   86000    298.89504    318.48685    279.21348   -1224.8727    1222.9972 
   87000    300.22431    320.77694    280.72755   -1260.6875    1252.1618 
   88000    300.83001     317.3819    281.45962    -1286.921     1278.501 
   89000    300.89976    318.51665    279.84716   -1322.9994    1313.3759 
   90000    300.18291    314.81727    281.07303   -1356.5019    1343.5341 
   91000    300.18674     315.5416     283.4641   -1389.4684    1373.7336 
   92000    300.35847    322.19504     280.3295   -1433.4384    1407.8422 
   93000    300.41408    315.12424    281.24627   -1449.8088    1437.3082 
   94000       300.72    319.53475    279.97901   -1485.5422    1459.7941 
   95000    299.84183    321.86274    275.91396   -1507.7231    1503.9859 
   96000    299.81663    323.26059    282.79816   -1555.0165    1535.3821 
   97000    300.39226    318.29815    283.49708   -1581.8827    1565.0332 
   98000    300.57249    323.96537    279.91013   -1616.4518     1594.165 
   99000    299.71263    317.61722    282.47682   -1633.4319    1634.6113 
  100000    299.46365    317.82935    280.47817   -1659.7525    1667.9149 
  101000    300.52928     317.2654    279.48526   -1688.8237    1695.7146 
  102000    299.92106     324.3076    284.55766   -1723.3083    1734.0679 
  103000     299.3427    317.29288    282.42464   -1740.3893    1754.9518 
  104000    299.45022    320.27733    280.62922   -1771.6331    1791.8676 
  105000    298.74311    314.69544    280.32411   -1798.2008     1817.478 
  106000    299.93684    322.08962     282.3629   -1838.5204    1845.9099 
  107000    299.85708     315.9334    281.35466   -1867.1453    1871.7941 
  108000    300.94942    312.96418    285.77315   -1899.6794    1900.9597 
  109000    300.05332    315.98511    285.58788    -1935.929    1927.0088 
  110000    300.60608    318.04235     282.0066   -1973.7427    1963.6557 
  111000     300.3407    319.52428    285.26893   -2014.6083     1985.651 
  112000    300.18959    320.10302     280.6881   -2038.9878    2032.4174 
  113000    299.30633    316.94912    281.48451   -2058.3335    2064.9507 
  114000    300.21296    315.04139    278.39926   -2102.0796    2100.5024 
  115000    299.93427    318.12042    280.94704   -2130.7243    2131.0574 
  116000    299.68327    322.79168    284.34127   -2151.7632    2158.0744 
  117000    300.33717    320.57319    281.54125   -2184.2871    2192.3516 
  118000    299.93606    320.48905    284.15455   -2214.1581    2216.4011 
  119000    300.10737    322.13697    282.61412    -2248.177    2243.7642 
  120000    299.83324    322.06163    280.04156   -2287.9429    2274.3439 
  121000    300.13756     321.5147    279.62796   -2317.9716    2312.6209 
  122000     299.4634    317.34686      282.103   -2338.5507     2348.145 
  123000     300.1171     323.7699    283.32246   -2383.1042    2379.3585 
  124000    299.53273    319.03059    284.84522   -2415.1656     2420.118 
  125000      299.362    321.55639     278.9688   -2448.3527    2458.2253 
  126000    299.40864    318.77867    281.56763   -2469.7218    2477.4666 
  127000    299.69494    318.33892    284.40306   -2493.2963    2513.6503 
  128000    300.04648    320.37579    286.03967    -2536.534    2534.6754 
  129000    300.32373    319.36043    283.59378   -2571.3862    2575.8324 
  130000      299.901    317.37272    277.20694   -2603.2035    2620.6641 
  131000    299.53937    311.76255    282.09151   -2618.9016    2650.7521 
  132000    300.31629    320.10898    285.66355   -2675.6775    2677.3535 
  133000    300.31841    317.77025     280.3355   -2698.6134    2708.5476 
  134000    300.80365    321.25678    283.67307   -2742.7821    2738.3827 
  135000    299.76441    320.04403    279.03025   -2778.8425    2776.2204 
  136000    299.72624    317.56091    278.58761   -2807.9858    2807.7783 
  137000      299.734    318.47589    278.02147   -2842.8497     2844.974 
  138000    300.56982    322.51983    283.69942   -2869.1847    2874.4493 
  139000    299.43411    317.00524    281.56972    -2888.367    2903.6309 
  140000    300.32382    320.29216    276.15934   -2938.1071    2942.3114 
  141000    299.20866     317.7777    277.27085   -2968.0938    2963.8749 
  142000    300.20118    319.19496    285.50346   -2990.4574    2994.4826 
  143000    300.40038     323.5221    278.81918   -3032.7673    3023.0308 
  144000    300.32773    315.18207    283.50359   -3057.2382    3051.6427 
  145000    300.03631    315.67721    279.31453   -3080.9824    3095.1289 
  145001    299.94198    315.26563    278.72315   -3080.7165    3096.0587 
Loop time of 2839.99 on 32 procs for 100000 steps with 193600 atoms

Performance: 1.521 ns/day, 15.778 hours/ns, 35.211 timesteps/s
84.1% CPU use with 32 MPI tasks x no OpenMP threads

MPI task timing breakdown:
Section |  min time  |  avg time  |  max time  |%varavg| %total
---------------------------------------------------------------
Pair    | 1979.3     | 2015.6     | 2053.5     |  38.1 | 70.97
Neigh   | 0          | 0          | 0          |   0.0 |  0.00
Comm    | 306.08     | 447.25     | 553.33     | 361.2 | 15.75
Output  | 0.10353    | 0.1098     | 0.11297    |   0.7 |  0.00
Modify  | 243.1      | 344.25     | 458.28     | 401.1 | 12.12
Other   |            | 32.82      |            |       |  1.16

Nlocal:    6050 ave 6106 max 6008 min
Histogram: 3 3 6 5 1 6 3 2 2 1
Nghost:    5892.5 ave 5934 max 5837 min
Histogram: 1 2 2 3 5 2 5 6 3 3
Neighs:    0 ave 0 max 0 min
Histogram: 32 0 0 0 0 0 0 0 0 0
FullNghs:  209604 ave 211679 max 208116 min
Histogram: 4 2 6 5 5 2 3 2 2 1

Total # of neighbors = 6707344
Ave neighs/atom = 34.6454
Neighbor list builds = 0
Dangerous builds = 0

# thermal conductivity calculation
# reset langevin thermostats to zero energy accumulation
reset_timestep 0
thermo		$c
thermo		500000
compute		ke all ke/atom
variable	temp atom c_ke/1.5/8.617332478e-5
fix		hot all langevin ${thi} ${thi} ${tdamp} 389516 tally yes
fix		hot all langevin 319.9225 ${thi} ${tdamp} 389516 tally yes
fix		hot all langevin 319.9225 319.9225 ${tdamp} 389516 tally yes
fix		hot all langevin 319.9225 319.9225 0.05 389516 tally yes
fix_modify	hot temp Thot
fix		cold all langevin ${tlo} ${tlo} ${tdamp} 46579 tally yes
fix		cold all langevin 280.0775 ${tlo} ${tdamp} 46579 tally yes
fix		cold all langevin 280.0775 280.0775 ${tdamp} 46579 tally yes
fix		cold all langevin 280.0775 280.0775 0.05 46579 tally yes
fix_modify	cold temp Tcold

compute		ch all chunk/atom bin/1d x lower 0.02 units reduced
fix		11 all ave/chunk $a $b $c ch v_temp file sw_${P}.langevin
fix		11 all ave/chunk 100 $b $c ch v_temp file sw_${P}.langevin
fix		11 all ave/chunk 100 5000 $c ch v_temp file sw_${P}.langevin
fix		11 all ave/chunk 100 5000 500000 ch v_temp file sw_${P}.langevin
fix		11 all ave/chunk 100 5000 500000 ch v_temp file sw_32.langevin
thermo_style	custom step temp c_Thot c_Tcold f_hot f_cold

run		${t2nve}
run		500000
Per MPI rank memory allocation (min/avg/max) = 5.118 | 5.12 | 5.121 Mbytes
Step Temp c_Thot c_Tcold f_hot f_cold 
       0    299.94198    315.46292    278.41471           -0           -0 
  500000     300.7349    317.19088    278.95645   -16012.248     15980.19 
Loop time of 14243.9 on 32 procs for 500000 steps with 193600 atoms

Performance: 1.516 ns/day, 15.827 hours/ns, 35.103 timesteps/s
83.9% CPU use with 32 MPI tasks x no OpenMP threads

MPI task timing breakdown:
Section |  min time  |  avg time  |  max time  |%varavg| %total
---------------------------------------------------------------
Pair    | 9872.4     | 10080      | 10219      |  77.9 | 70.77
Neigh   | 0          | 0          | 0          |   0.0 |  0.00
Comm    | 1572.8     | 2248.8     | 2720.5     | 734.9 | 15.79
Output  | 0.000867   | 0.0019056  | 0.002044   |   0.5 |  0.00
Modify  | 1207.9     | 1746       | 2292.3     | 844.4 | 12.26
Other   |            | 169.3      |            |       |  1.19

Nlocal:    6050 ave 6097 max 6012 min
Histogram: 4 1 6 3 3 8 2 1 1 3
Nghost:    5892.5 ave 5930 max 5846 min
Histogram: 3 1 1 2 7 4 3 6 1 4
Neighs:    0 ave 0 max 0 min
Histogram: 32 0 0 0 0 0 0 0 0 0
FullNghs:  209574 ave 211492 max 208144 min
Histogram: 4 1 7 2 7 3 4 1 0 3

Total # of neighbors = 6706366
Ave neighs/atom = 34.6403
Neighbor list builds = 0
Dangerous builds = 0
clear
next		P
jump		Si.in
Total wall time: 17:28:50
