# temperature
variable	T equal 300
#cold region temperature
#variable        tlo equal 275
variable        tlo equal ${T}-${L}*${cte}/4.0
variable        tlo equal 300-${L}*${cte}/4.0
variable        tlo equal 300-50*${cte}/4.0
variable        tlo equal 300-50*1.5938/4.0
#hot region temperature
#variable        thi equal ${cte}*${L}/2+${tlo}
variable        thi equal ${T}+${L}*${cte}/4.0
variable        thi equal 300+${L}*${cte}/4.0
variable        thi equal 300+50*${cte}/4.0
variable        thi equal 300+50*1.5938/4.0

#time step (picoseconds)
variable	dt equal 0.0005 # 0.5 femtoseconds
#number of time steps for NPT
variable	tnpt equal 5000
#number of time steps for NVT
variable	tnvt equal 40000
#number of time steps for first NVE
variable	t1nve equal 100000
#number of time steps for second NVE
variable	t2nve equal 500000

################### Variable Based on LAMMPS Documentation ######################
variable	a equal 100
variable	c equal ${t2nve}
variable	c equal 500000
variable	b equal $c/$a
variable	b equal 500000/$a
variable	b equal 500000/100
variable	tdamp equal ${dt}*100
variable	tdamp equal 0.0005*100
variable	pdamp equal ${dt}*1000
variable	pdamp equal 0.0005*1000

#----------------------------------------------------------------------------------------
# setup problem
dimension       3
boundary        p p p
atom_style      atomic
lattice 	diamond ${LC} origin 0.0 0.0 0.0 orient x 1 0 0 orient y 0 1 0 orient z 0 0 1
lattice 	diamond 5.43 origin 0.0 0.0 0.0 orient x 1 0 0 orient y 0 1 0 orient z 0 0 1
Lattice spacing in x,y,z = 5.43 5.43 5.43
region          0 block 0 $L 0 $W 0 $H units lattice side in
region          0 block 0 50 0 $W 0 $H units lattice side in
region          0 block 0 50 0 22 0 $H units lattice side in
region          0 block 0 50 0 22 0 22 units lattice side in
create_box      1 0
Created orthogonal box = (0 0 0) to (271.5 119.46 119.46)
  8 by 2 by 2 MPI processor grid
create_atoms    1 region 0
Created 193600 atoms
mass		1 28.0855
#dump		1 all xyz 1000 Si_W_${W}nm.xyz
#dump_modify	1 element Si

############################################
pair_style   sw
pair_coeff   * * Si${P}.sw Si
pair_coeff   * * Si34.sw Si
thermo		100
thermo_style custom step lx
min_style cg
minimize 0.0 1.0e-8 10000 100000
WARNING: Using 'neigh_modify every 1 delay 0 check yes' setting during minimization (../min.cpp:168)
Neighbor list info ...
  update every 1 steps, delay 0 steps, check yes
  max neighbors/atom: 2000, page size: 100000
  master list distance cutoff = 5.51413
  ghost atom cutoff = 5.51413
  binsize = 2.75707, bins = 99 44 44
  1 neighbor lists, perpetual/occasional/extra = 1 0 0
  (1) pair sw, perpetual
      attributes: full, newton on
      pair build: full/bin/atomonly
      stencil: full/bin/3d
      bin: standard
Per MPI rank memory allocation (min/avg/max) = 5.246 | 5.246 | 5.246 Mbytes
Step Lx 
       0        271.5 
       1        271.5 
Loop time of 0.0420543 on 32 procs for 1 steps with 193600 atoms

76.2% CPU use with 32 MPI tasks x no OpenMP threads

Minimization stats:
  Stopping criterion = force tolerance
  Energy initial, next-to-last, final = 
         -577117.45839      -577117.45839      -577117.45839
  Force two-norm initial, final = 7.4921e-11 7.48688e-11
  Force max component initial, final = 4.3456e-13 4.37095e-13
  Final line search alpha, max atom move = 1 4.37095e-13
  Iterations, force evaluations = 1 2

MPI task timing breakdown:
Section |  min time  |  avg time  |  max time  |%varavg| %total
---------------------------------------------------------------
Pair    | 0.024267   | 0.024706   | 0.025276   |   0.1 | 58.75
Neigh   | 0          | 0          | 0          |   0.0 |  0.00
Comm    | 0.006552   | 0.0097432  | 0.013322   |   2.1 | 23.17
Output  | 0          | 0          | 0          |   0.0 |  0.00
Modify  | 0          | 0          | 0          |   0.0 |  0.00
Other   |            | 0.007605   |            |       | 18.08

Nlocal:    6050 ave 6050 max 6050 min
Histogram: 32 0 0 0 0 0 0 0 0 0
Nghost:    5892.5 ave 5893 max 5892 min
Histogram: 16 0 0 0 0 0 0 0 0 16
Neighs:    0 ave 0 max 0 min
Histogram: 32 0 0 0 0 0 0 0 0 0
FullNghs:  205700 ave 205700 max 205700 min
Histogram: 32 0 0 0 0 0 0 0 0 0

Total # of neighbors = 6582400
Ave neighs/atom = 34
Neighbor list builds = 0
Dangerous builds = 0
timestep     ${dt}
timestep     0.0005
velocity 	all create $T 492845
velocity 	all create 300 492845


fix 		NPT all npt temp $T $T ${tdamp} iso 0.0 0.0 ${pdamp}
fix 		NPT all npt temp 300 $T ${tdamp} iso 0.0 0.0 ${pdamp}
fix 		NPT all npt temp 300 300 ${tdamp} iso 0.0 0.0 ${pdamp}
fix 		NPT all npt temp 300 300 0.05 iso 0.0 0.0 ${pdamp}
fix 		NPT all npt temp 300 300 0.05 iso 0.0 0.0 0.5
thermo		100
thermo_style custom step lx press
run		${tnpt}
run		5000
Per MPI rank memory allocation (min/avg/max) = 4.121 | 4.121 | 4.121 Mbytes
Step Lx Press 
       1        271.5   -98863.077 
     100     266.8762   -55879.241 
     200    264.15515   -26388.053 
     300    262.65508   -8644.8967 
     400    262.05835   -875.77283 
     500    261.97923   -145.57627 
     600    261.99292    171.77017 
     700    262.01265    45.815621 
     800    262.02203    14.171568 
     900    262.04475    70.799119 
    1000    262.05706   -33.617441 
    1100    262.06825     100.5155 
    1200    262.08527   -34.747979 
    1300    262.09468    27.009001 
    1400     262.1021    45.160359 
    1500     262.1054   -59.544938 
    1600    262.10348    43.154698 
    1700    262.10007   -43.688446 
    1800    262.09582    -11.33467 
    1900    262.09419    45.455609 
    2000    262.10143   -47.424765 
    2100    262.10182    9.2411678 
    2200     262.1026    10.986048 
    2300    262.10213   -52.709622 
    2400    262.09664    8.7653953 
    2500    262.09737    11.655843 
    2600    262.09788   -5.4740581 
    2700    262.10147    4.3662798 
    2800    262.09893   0.14718285 
    2900    262.09983    37.920351 
    3000    262.10442   -37.796022 
    3100    262.09601    2.8808327 
    3200    262.09695    33.720724 
    3300    262.10041   -62.379622 
    3400    262.09478    58.629823 
    3500    262.10924   -61.004614 
    3600    262.09014    82.057433 
    3700    262.11248   -113.48912 
    3800    262.08306    123.56541 
    3900    262.11196   -121.79185 
    4000     262.0854    131.25111 
    4100    262.11319   -131.06449 
    4200    262.09052    107.17041 
    4300    262.10561    -68.33644 
    4400    262.09665    13.165621 
    4500    262.09658    19.349218 
    4600    262.10079   -36.682493 
    4700    262.09619    38.611835 
    4800    262.10492    -49.53463 
    4900    262.09406    56.328771 
    5000    262.10601   -54.297996 
    5001    262.10596   -53.670224 
Loop time of 75.1624 on 32 procs for 5000 steps with 193600 atoms

Performance: 2.874 ns/day, 8.351 hours/ns, 66.523 timesteps/s
75.4% CPU use with 32 MPI tasks x no OpenMP threads

MPI task timing breakdown:
Section |  min time  |  avg time  |  max time  |%varavg| %total
---------------------------------------------------------------
Pair    | 42.873     | 43.515     | 44.256     |   5.7 | 57.89
Neigh   | 0.12889    | 0.13499    | 0.14625    |   0.9 |  0.18
Comm    | 11.773     | 17.502     | 22.983     |  80.9 | 23.29
Output  | 0.028615   | 0.033975   | 0.037778   |   1.8 |  0.05
Modify  | 8.1044     | 13.113     | 18.116     |  91.5 | 17.45
Other   |            | 0.8629     |            |       |  1.15

Nlocal:    6050 ave 6109 max 5997 min
Histogram: 2 3 2 5 7 4 3 3 1 2
Nghost:    5892.5 ave 5945 max 5833 min
Histogram: 2 1 3 3 4 7 5 2 3 2
Neighs:    0 ave 0 max 0 min
Histogram: 32 0 0 0 0 0 0 0 0 0
FullNghs:  205814 ave 207841 max 204006 min
Histogram: 2 3 2 5 7 4 3 3 1 2

Total # of neighbors = 6586062
Ave neighs/atom = 34.0189
Neighbor list builds = 12
Dangerous builds = 0
unfix		NPT
variable	length equal lx/${LC}
variable	length equal lx/5.43

################### Geometrical Parameters After Relaxation ###############################
# Thermostat_width
variable	TW equal ${length}/40
variable	TW equal 48.2699734596995/40
# Hot_Start
variable	hs equal ${length}/4-${TW}
variable	hs equal 48.2699734596995/4-${TW}
variable	hs equal 48.2699734596995/4-1.20674933649249
# Hot_End
variable	he equal ${length}/4+${TW}
variable	he equal 48.2699734596995/4+${TW}
variable	he equal 48.2699734596995/4+1.20674933649249
# Cold_Start
variable	cs equal 3*${length}/4-${TW}
variable	cs equal 3*48.2699734596995/4-${TW}
variable	cs equal 3*48.2699734596995/4-1.20674933649249
# Cold_End
variable	ce equal 3*${length}/4+${TW}
variable	ce equal 3*48.2699734596995/4+${TW}
variable	ce equal 3*48.2699734596995/4+1.20674933649249
###########################################################################################

################### Defining Thermostat ###################################################
region 		hot block ${hs} ${he} EDGE EDGE EDGE EDGE
region 		hot block 10.8607440284324 ${he} EDGE EDGE EDGE EDGE
region 		hot block 10.8607440284324 13.2742427014174 EDGE EDGE EDGE EDGE
region 		cold block ${cs} ${ce} EDGE EDGE EDGE EDGE
region 		cold block 34.9957307582821 ${ce} EDGE EDGE EDGE EDGE
region 		cold block 34.9957307582821 37.4092294312671 EDGE EDGE EDGE EDGE
group		test region cold
9573 atoms in group test
group		test1 region hot
9583 atoms in group test1
compute		Thot all temp/region hot
compute         Tcold all temp/region cold
###########################################################################################

fix		NVT all nvt temp $T $T ${tdamp}
fix		NVT all nvt temp 300 $T ${tdamp}
fix		NVT all nvt temp 300 300 ${tdamp}
fix		NVT all nvt temp 300 300 0.05
thermo		1000
thermo_style	custom step temp
run		${tnvt}
run		40000
Per MPI rank memory allocation (min/avg/max) = 4.125 | 4.125 | 4.125 Mbytes
Step Temp 
    5001    299.28321 
    6000    297.78845 
    7000    299.91435 
    8000    298.92242 
    9000    301.62212 
   10000     300.9794 
   11000    300.60912 
   12000    300.16686 
   13000    300.99036 
   14000    300.05118 
   15000    300.30838 
   16000    298.67762 
   17000    300.10885 
   18000     298.8323 
   19000    301.58546 
   20000     300.2596 
   21000    298.77539 
   22000    299.17092 
   23000    300.74269 
   24000     299.4185 
   25000    299.65015 
   26000    298.81662 
   27000    299.67892 
   28000    299.95784 
   29000    299.41114 
   30000    299.63234 
   31000      298.621 
   32000    298.96182 
   33000    299.34933 
   34000    300.11318 
   35000    299.30537 
   36000    298.61592 
   37000    299.23862 
   38000     300.6783 
   39000    299.62798 
   40000    300.38884 
   41000    300.79731 
   42000    300.69983 
   43000    300.06016 
   44000    300.99363 
   45000    301.05261 
   45001      301.119 
Loop time of 577.182 on 32 procs for 40000 steps with 193600 atoms

Performance: 2.994 ns/day, 8.016 hours/ns, 69.302 timesteps/s
75.5% CPU use with 32 MPI tasks x no OpenMP threads

MPI task timing breakdown:
Section |  min time  |  avg time  |  max time  |%varavg| %total
---------------------------------------------------------------
Pair    | 337.73     | 344.13     | 352.99     |  17.8 | 59.62
Neigh   | 0          | 0          | 0          |   0.0 |  0.00
Comm    | 102.93     | 149.43     | 186.04     | 216.3 | 25.89
Output  | 0.021882   | 0.024647   | 0.027365   |   1.0 |  0.00
Modify  | 33.115     | 69.434     | 110.45     | 305.0 | 12.03
Other   |            | 14.16      |            |       |  2.45

Nlocal:    6050 ave 6104 max 5988 min
Histogram: 1 2 3 2 5 8 2 4 3 2
Nghost:    5892.5 ave 5955 max 5838 min
Histogram: 2 3 4 2 8 5 2 3 2 1
Neighs:    0 ave 0 max 0 min
Histogram: 32 0 0 0 0 0 0 0 0 0
FullNghs:  206258 ave 208057 max 204105 min
Histogram: 1 2 2 3 4 9 2 4 3 2

Total # of neighbors = 6600258
Ave neighs/atom = 34.0922
Neighbor list builds = 0
Dangerous builds = 0
velocity	all scale $T
velocity	all scale 300
unfix		NVT

fix		NVE all nve
fix		hot all langevin ${thi} ${thi} ${tdamp} 389516 tally yes
fix		hot all langevin 319.9225 ${thi} ${tdamp} 389516 tally yes
fix		hot all langevin 319.9225 319.9225 ${tdamp} 389516 tally yes
fix		hot all langevin 319.9225 319.9225 0.05 389516 tally yes
fix_modify	hot temp Thot
fix		cold all langevin ${tlo} ${tlo} ${tdamp} 46579 tally yes
fix		cold all langevin 280.0775 ${tlo} ${tdamp} 46579 tally yes
fix		cold all langevin 280.0775 280.0775 ${tdamp} 46579 tally yes
fix		cold all langevin 280.0775 280.0775 0.05 46579 tally yes
fix_modify	cold temp Tcold

thermo_style	custom step temp c_Thot c_Tcold f_hot f_cold
run		${t1nve}
run		100000
Per MPI rank memory allocation (min/avg/max) = 4.875 | 4.875 | 4.875 Mbytes
Step Temp c_Thot c_Tcold f_hot f_cold 
   45001          300    300.38864    296.42119           -0           -0 
   46000    299.61786    320.50929    280.06505   -71.943524       59.674 
   47000    300.40781    318.40351    281.20495   -97.204339    84.234628 
   48000     300.0442    316.31906    282.47785   -105.46949    100.75683 
   49000    299.44643    317.79772     281.7331   -122.25286    123.99486 
   50000    299.06064    318.86065    276.39631   -153.95331    150.20474 
   51000    299.33193    319.83063    276.19309   -162.21092    173.60717 
   52000    299.34878    321.24142    276.09216   -193.06266    197.37894 
   53000    299.82321    325.57976    278.16477    -220.0644    209.93503 
   54000    300.08486    318.70872    281.87947   -245.23977    233.92682 
   55000    299.79619    320.76406    284.64019    -287.0714     265.7029 
   56000    299.48333    316.86441    282.71566   -298.43432    285.03394 
   57000    300.75177    320.05401    282.34492   -333.88848    319.02007 
   58000    299.75583    312.62767    281.95346   -351.27998    343.57007 
   59000    299.99418    320.93062     286.0346   -393.15775    368.62679 
   60000    299.24258     313.3905    282.10841   -421.86402    410.87995 
   61000    299.14505     320.3597    275.98526   -465.87199    445.65123 
   62000    301.06381    318.64039    281.28269   -496.90683    476.66398 
   63000     299.7981    319.57634    285.82194   -533.47483     505.6456 
   64000    300.23265    318.03969    279.53009   -561.89725    536.11357 
   65000    300.41435    314.78773     284.8036   -587.82664    567.01519 
   66000    300.04047    310.87283    283.07108   -609.00756    601.48146 
   67000    300.44566     319.6567    284.35614     -654.622    631.98456 
   68000    299.43063    319.41173    280.36269   -687.69224    665.28454 
   69000    300.08452    320.05924    279.04614   -717.70102    699.75471 
   70000    300.66938    319.76305    286.12962   -748.68655    715.97866 
   71000    300.02473     319.2857    279.63528   -780.91431    755.76746 
   72000    299.86912    319.31798    281.36258   -823.86096    794.10296 
   73000     299.8178    318.55183    281.69237   -854.81341    824.55948 
   74000    299.71628      320.446    285.50149   -878.68849    851.89189 
   75000    300.05219    319.85927    279.66081   -905.59457    882.08385 
   76000    299.67285    316.80079    284.29175   -942.57609    920.33817 
   77000    299.84294    317.22073     282.6384   -963.65494    962.24882 
   78000    299.47249    316.78779    279.60558   -995.57221    989.59196 
   79000    299.66667    318.73886    284.48432   -1043.8251    1027.0121 
   80000    298.85219    318.16555    282.22909   -1058.9436    1059.5694 
   81000    300.24414    324.25429    281.25072   -1100.7175    1097.3673 
   82000    299.39509    317.69132     279.3867   -1110.6011    1134.2661 
   83000    298.96211     317.0726    279.67047   -1156.3142    1165.2107 
   84000    299.85567    321.18203    280.39057   -1196.2229    1198.3346 
   85000    300.23964    317.87687    280.94512   -1233.5228    1228.4451 
   86000    300.44703    320.61879    282.34978   -1279.3471    1261.2263 
   87000    300.20409    317.21325    279.44125   -1305.7051    1289.5459 
   88000    298.80741     320.8091    276.48455   -1343.0461    1329.0091 
   89000    299.89273    319.36557    281.09697   -1377.7416    1347.8688 
   90000    299.77494    316.78122    280.85244   -1392.5233    1389.0557 
   91000    299.57345    316.79231    281.45878   -1428.4015    1418.4596 
   92000    300.02231    320.79293    278.12329   -1465.3012     1443.097 
   93000    300.09937    320.77729    281.09345   -1496.0567    1477.6649 
   94000    299.46948    319.10661    278.94338   -1528.3127    1516.3315 
   95000    299.39401    318.72978    281.74076   -1556.3205    1541.4601 
   96000    300.00544     318.5202     280.7244   -1587.4117     1568.531 
   97000    299.52017    314.77053    277.14391   -1613.8271     1609.058 
   98000     299.0443    316.95466    282.55297   -1646.6482    1646.7083 
   99000    299.47971    316.65367    279.78005   -1678.1808    1677.3498 
  100000    300.43723    325.23782    284.11389   -1723.6261     1712.086 
  101000    300.13433    318.95847    282.51468   -1748.7226    1732.7813 
  102000    299.96214    322.83906    283.92841   -1784.5949    1773.3775 
  103000    299.59814    319.33931    281.09303   -1819.4932    1802.4589 
  104000    299.35172    320.46788    277.56113   -1847.7265    1845.1078 
  105000    300.00393    319.81643    279.81311   -1879.6232    1872.3935 
  106000    299.24804    317.90358    283.82701   -1912.7683    1900.7485 
  107000     299.5115    317.44349     280.4044   -1942.8665    1929.1239 
  108000    300.00161     319.9198    281.97331   -1978.7722    1954.1382 
  109000    300.85076    323.49777    279.09609   -2023.5765    1991.7244 
  110000    299.77588    316.02304    282.65608   -2039.7763    2013.7379 
  111000    299.09428    319.33584    284.13039   -2079.0291    2044.2068 
  112000    300.13838    315.12186    280.98933   -2097.8342    2083.5264 
  113000    299.47497    318.32827     278.1535   -2131.3974    2118.9896 
  114000    299.87912    317.42695    280.63917   -2166.2436    2143.8083 
  115000    300.04224    320.18419    278.83572    -2205.058    2173.8339 
  116000    299.67403    315.83093    282.15563     -2241.48    2206.6484 
  117000    299.72397    314.30768     280.1377   -2268.8398    2246.5958 
  118000    299.54429    316.92895     284.3806   -2305.0988    2277.7557 
  119000    299.47054    317.56776    287.86628   -2338.6518    2311.7149 
  120000    299.54018    318.41771    282.78728   -2368.5437    2346.7566 
  121000    299.13904    319.97734     278.9537   -2408.5601    2385.8679 
  122000     300.3789    317.44118     280.8447   -2437.0615    2409.3577 
  123000    299.74301    314.96528    280.96475   -2472.0243    2438.9632 
  124000    300.90859    315.51668     283.2136   -2492.8493    2457.2596 
  125000    300.33942    317.02414    278.47977   -2533.6736    2508.0033 
  126000    300.39037    316.80253    280.98051   -2570.8497    2534.9822 
  127000    300.49074    320.36084     283.8216   -2614.6258    2562.0256 
  128000    301.10148    322.26542    282.56347   -2641.2075    2600.3507 
  129000    300.61543    320.23278    280.55658   -2674.4277    2626.7239 
  130000    300.47888    318.22116    278.97829   -2712.5063    2664.4211 
  131000    300.82627     318.7139    279.87864   -2736.4194    2701.2784 
  132000    300.22598    317.28271    280.38423    -2780.371    2735.1632 
  133000    300.92066    320.94708    281.69288   -2821.1126    2764.1721 
  134000    299.62365    317.65949    280.30288   -2842.6706    2804.9584 
  135000    300.03848    315.03359     279.2574   -2876.1467    2841.3866 
  136000     300.8011    319.53528    283.75593   -2914.1982    2871.1792 
  137000    300.02793    319.30903    287.35737   -2946.8627    2893.3746 
  138000    300.00356    316.78871    277.07496   -2985.9039     2943.973 
  139000    299.86345    316.34349    281.26092   -3019.6453    2975.0915 
  140000    299.71358    320.19045    279.95728   -3051.0949    2999.3532 
  141000    300.39827    317.43258    279.89357   -3079.1123    3032.1719 
  142000    299.50925    317.46764     277.1104   -3109.1004    3074.2165 
  143000    299.82056    321.16947    281.16904   -3132.3716     3103.478 
  144000    300.60724    319.60045    280.09359   -3171.1321    3138.5744 
  145000    300.33212    320.29405    281.18956   -3195.5283    3173.3114 
  145001    300.25852    319.85104    281.41316   -3195.2925    3173.3104 
Loop time of 1581.83 on 32 procs for 100000 steps with 193600 atoms

Performance: 2.731 ns/day, 8.788 hours/ns, 63.218 timesteps/s
76.0% CPU use with 32 MPI tasks x no OpenMP threads

MPI task timing breakdown:
Section |  min time  |  avg time  |  max time  |%varavg| %total
---------------------------------------------------------------
Pair    | 849.44     | 862.77     | 876.42     |  21.8 | 54.54
Neigh   | 0          | 0          | 0          |   0.0 |  0.00
Comm    | 259.77     | 374.81     | 476.2      | 344.9 | 23.69
Output  | 0.098534   | 0.10478    | 0.10905    |   1.1 |  0.01
Modify  | 207.03     | 309.54     | 415.97     | 374.3 | 19.57
Other   |            | 34.6       |            |       |  2.19

Nlocal:    6050 ave 6101 max 6011 min
Histogram: 4 0 5 6 4 7 3 1 0 2
Nghost:    5892.31 ave 5931 max 5841 min
Histogram: 2 0 1 3 5 6 5 6 0 4
Neighs:    0 ave 0 max 0 min
Histogram: 32 0 0 0 0 0 0 0 0 0
FullNghs:  206278 ave 208058 max 204930 min
Histogram: 4 0 5 5 7 5 3 1 0 2

Total # of neighbors = 6600898
Ave neighs/atom = 34.0955
Neighbor list builds = 0
Dangerous builds = 0

# thermal conductivity calculation
# reset langevin thermostats to zero energy accumulation
reset_timestep 0
thermo		$c
thermo		500000
compute		ke all ke/atom
variable	temp atom c_ke/1.5/8.617332478e-5
fix		hot all langevin ${thi} ${thi} ${tdamp} 389516 tally yes
fix		hot all langevin 319.9225 ${thi} ${tdamp} 389516 tally yes
fix		hot all langevin 319.9225 319.9225 ${tdamp} 389516 tally yes
fix		hot all langevin 319.9225 319.9225 0.05 389516 tally yes
fix_modify	hot temp Thot
fix		cold all langevin ${tlo} ${tlo} ${tdamp} 46579 tally yes
fix		cold all langevin 280.0775 ${tlo} ${tdamp} 46579 tally yes
fix		cold all langevin 280.0775 280.0775 ${tdamp} 46579 tally yes
fix		cold all langevin 280.0775 280.0775 0.05 46579 tally yes
fix_modify	cold temp Tcold

compute		ch all chunk/atom bin/1d x lower 0.02 units reduced
fix		11 all ave/chunk $a $b $c ch v_temp file sw_${P}.langevin
fix		11 all ave/chunk 100 $b $c ch v_temp file sw_${P}.langevin
fix		11 all ave/chunk 100 5000 $c ch v_temp file sw_${P}.langevin
fix		11 all ave/chunk 100 5000 500000 ch v_temp file sw_${P}.langevin
fix		11 all ave/chunk 100 5000 500000 ch v_temp file sw_34.langevin
thermo_style	custom step temp c_Thot c_Tcold f_hot f_cold

run		${t2nve}
run		500000
Per MPI rank memory allocation (min/avg/max) = 5.125 | 5.125 | 5.125 Mbytes
Step Temp c_Thot c_Tcold f_hot f_cold 
       0    300.25852    319.75687    280.85411           -0           -0 
  500000    300.36014     323.3502    279.76177   -16269.372    16269.991 
Loop time of 7878.58 on 32 procs for 500000 steps with 193600 atoms

Performance: 2.742 ns/day, 8.754 hours/ns, 63.463 timesteps/s
76.3% CPU use with 32 MPI tasks x no OpenMP threads

MPI task timing breakdown:
Section |  min time  |  avg time  |  max time  |%varavg| %total
---------------------------------------------------------------
Pair    | 4231.2     | 4316.6     | 4420       |  63.0 | 54.79
Neigh   | 0          | 0          | 0          |   0.0 |  0.00
Comm    | 1275.7     | 1871.8     | 2370.4     | 767.3 | 23.76
Output  | 0.000848   | 0.0015782  | 0.001746   |   0.4 |  0.00
Modify  | 1034.6     | 1520.6     | 2043.1     | 827.8 | 19.30
Other   |            | 169.6      |            |       |  2.15

Nlocal:    6050 ave 6106 max 6009 min
Histogram: 5 3 3 5 4 3 4 1 2 2
Nghost:    5892.28 ave 5934 max 5837 min
Histogram: 2 2 1 4 4 4 4 3 3 5
Neighs:    0 ave 0 max 0 min
Histogram: 32 0 0 0 0 0 0 0 0 0
FullNghs:  206326 ave 208318 max 204972 min
Histogram: 5 3 5 3 5 5 1 2 1 2

Total # of neighbors = 6602436
Ave neighs/atom = 34.1035
Neighbor list builds = 0
Dangerous builds = 0
clear
next		P
jump		Si.in
 units       metal
#----------------------------- User Input Variables --------------------------------------
################### Geometrical Parameters ###############################
variable	P index 33 34 35 36
variable	W equal 22
# Lattice Constant
variable	LC equal 5.43
# Length
variable	L equal 50
# Width
#variable	W equal 6
# Height
variable	H equal ${W}
variable	H equal 22
################### Simulation Condition ###############################
#DT/DX=cte
variable	cte equal 1.5938
log         sw_${P}.log
log         sw_35.log
