# temperature
variable	T equal 300
#cold region temperature
#variable        tlo equal 275
variable        tlo equal ${T}-${L}*${cte}/4.0
variable        tlo equal 300-${L}*${cte}/4.0
variable        tlo equal 300-50*${cte}/4.0
variable        tlo equal 300-50*1.5938/4.0
#hot region temperature
#variable        thi equal ${cte}*${L}/2+${tlo}
variable        thi equal ${T}+${L}*${cte}/4.0
variable        thi equal 300+${L}*${cte}/4.0
variable        thi equal 300+50*${cte}/4.0
variable        thi equal 300+50*1.5938/4.0

#time step (picoseconds)
variable	dt equal 0.0005 # 0.5 femtoseconds
#number of time steps for NPT
variable	tnpt equal 5000
#number of time steps for NVT
variable	tnvt equal 40000
#number of time steps for first NVE
variable	t1nve equal 100000
#number of time steps for second NVE
variable	t2nve equal 500000

################### Variable Based on LAMMPS Documentation ######################
variable	a equal 100
variable	c equal ${t2nve}
variable	c equal 500000
variable	b equal $c/$a
variable	b equal 500000/$a
variable	b equal 500000/100
variable	tdamp equal ${dt}*100
variable	tdamp equal 0.0005*100
variable	pdamp equal ${dt}*1000
variable	pdamp equal 0.0005*1000

#----------------------------------------------------------------------------------------
# setup problem
dimension       3
boundary        p p p
atom_style      atomic
lattice 	diamond ${LC} origin 0.0 0.0 0.0 orient x 1 0 0 orient y 0 1 0 orient z 0 0 1
lattice 	diamond 5.43 origin 0.0 0.0 0.0 orient x 1 0 0 orient y 0 1 0 orient z 0 0 1
Lattice spacing in x,y,z = 5.43 5.43 5.43
region          0 block 0 $L 0 $W 0 $H units lattice side in
region          0 block 0 50 0 $W 0 $H units lattice side in
region          0 block 0 50 0 22 0 $H units lattice side in
region          0 block 0 50 0 22 0 22 units lattice side in
create_box      1 0
Created orthogonal box = (0 0 0) to (271.5 119.46 119.46)
  8 by 2 by 2 MPI processor grid
create_atoms    1 region 0
Created 193600 atoms
mass		1 28.0855
#dump		1 all xyz 1000 Si_W_${W}nm.xyz
#dump_modify	1 element Si

############################################
pair_style   sw
pair_coeff   * * Si${P}.sw Si
pair_coeff   * * Si30.sw Si
thermo		100
thermo_style custom step lx
min_style cg
minimize 0.0 1.0e-8 10000 100000
WARNING: Using 'neigh_modify every 1 delay 0 check yes' setting during minimization (../min.cpp:168)
Neighbor list info ...
  update every 1 steps, delay 0 steps, check yes
  max neighbors/atom: 2000, page size: 100000
  master list distance cutoff = 5.81884
  ghost atom cutoff = 5.81884
  binsize = 2.90942, bins = 94 42 42
  1 neighbor lists, perpetual/occasional/extra = 1 0 0
  (1) pair sw, perpetual
      attributes: full, newton on
      pair build: full/bin/atomonly
      stencil: full/bin/3d
      bin: standard
Per MPI rank memory allocation (min/avg/max) = 5.239 | 5.24 | 5.242 Mbytes
Step Lx 
       0        271.5 
       1        271.5 
Loop time of 0.0423116 on 32 procs for 1 steps with 193600 atoms

75.4% CPU use with 32 MPI tasks x no OpenMP threads

Minimization stats:
  Stopping criterion = force tolerance
  Energy initial, next-to-last, final = 
        -885701.953222     -885701.953222     -885701.953222
  Force two-norm initial, final = 9.61655e-11 9.60934e-11
  Force max component initial, final = 5.61196e-13 5.62855e-13
  Final line search alpha, max atom move = 1 5.62855e-13
  Iterations, force evaluations = 1 2

MPI task timing breakdown:
Section |  min time  |  avg time  |  max time  |%varavg| %total
---------------------------------------------------------------
Pair    | 0.024697   | 0.025074   | 0.025558   |   0.1 | 59.26
Neigh   | 0          | 0          | 0          |   0.0 |  0.00
Comm    | 0.006893   | 0.010049   | 0.013547   |   2.0 | 23.75
Output  | 0          | 0          | 0          |   0.0 |  0.00
Modify  | 0          | 0          | 0          |   0.0 |  0.00
Other   |            | 0.007189   |            |       | 16.99

Nlocal:    6050 ave 6050 max 6050 min
Histogram: 32 0 0 0 0 0 0 0 0 0
Nghost:    5892.5 ave 5893 max 5892 min
Histogram: 16 0 0 0 0 0 0 0 0 16
Neighs:    0 ave 0 max 0 min
Histogram: 32 0 0 0 0 0 0 0 0 0
FullNghs:  205700 ave 205700 max 205700 min
Histogram: 32 0 0 0 0 0 0 0 0 0

Total # of neighbors = 6582400
Ave neighs/atom = 34
Neighbor list builds = 0
Dangerous builds = 0
timestep     ${dt}
timestep     0.0005
velocity 	all create $T 492845
velocity 	all create 300 492845


fix 		NPT all npt temp $T $T ${tdamp} iso 0.0 0.0 ${pdamp}
fix 		NPT all npt temp 300 $T ${tdamp} iso 0.0 0.0 ${pdamp}
fix 		NPT all npt temp 300 300 ${tdamp} iso 0.0 0.0 ${pdamp}
fix 		NPT all npt temp 300 300 0.05 iso 0.0 0.0 ${pdamp}
fix 		NPT all npt temp 300 300 0.05 iso 0.0 0.0 0.5
thermo		100
thermo_style custom step lx press
run		${tnpt}
run		5000
Per MPI rank memory allocation (min/avg/max) = 4.114 | 4.115 | 4.117 Mbytes
Step Lx Press 
       1        271.5    10721.528 
     100    272.54398   -1258.1405 
     200    272.43468    292.14287 
     300    272.45511   -68.441591 
     400    272.48333     39.03181 
     500    272.47824    66.642553 
     600    272.50618   -38.861053 
     700    272.50708    99.645865 
     800     272.5374   -119.75837 
     900     272.5418    32.844599 
    1000    272.55687    29.304841 
    1100    272.57055    42.470394 
    1200     272.5874   -33.411057 
    1300     272.5942    18.968583 
    1400    272.60704    2.6131421 
    1500    272.61282   -39.342712 
    1600    272.61208    32.078115 
    1700    272.60668    30.843567 
    1800    272.60903   -53.303308 
    1900    272.59995    33.201721 
    2000    272.60612     1.254797 
    2100    272.60675    13.521312 
    2200    272.61114   -7.1130303 
    2300    272.61114   -7.4932195 
    2400    272.60761    10.965178 
    2500    272.60247   -16.461832 
    2600    272.60465    19.349984 
    2700    272.60703    15.923515 
    2800    272.60933   -29.294874 
    2900    272.61524   -20.143421 
    3000    272.59774    61.186757 
    3100     272.6186   -88.297642 
    3200    272.58618    160.30062 
    3300    272.62921   -221.91251 
    3400    272.58533    246.63025 
    3500    272.62443   -183.65304 
    3600    272.60858    42.921239 
    3700    272.59104    135.81912 
    3800    272.62954   -250.31441 
    3900    272.58443    236.47235 
    4000    272.61689    -96.60614 
    4100    272.61077   -31.292698 
    4200    272.60151    93.707988 
    4300    272.61476   -104.47429 
    4400    272.60487    39.572155 
    4500    272.59976     43.62545 
    4600    272.61671   -98.590006 
    4700    272.59718    115.58177 
    4800    272.61738   -81.354495 
    4900    272.60531    5.4245751 
    5000      272.604    43.953465 
    5001    272.60399    44.133825 
Loop time of 168.289 on 32 procs for 5000 steps with 193600 atoms

Performance: 1.284 ns/day, 18.699 hours/ns, 29.711 timesteps/s
85.1% CPU use with 32 MPI tasks x no OpenMP threads

MPI task timing breakdown:
Section |  min time  |  avg time  |  max time  |%varavg| %total
---------------------------------------------------------------
Pair    | 125.4      | 126.86     | 132.06     |  11.1 | 75.38
Neigh   | 0.012193   | 0.012871   | 0.013695   |   0.4 |  0.01
Comm    | 13.478     | 23.405     | 30.354     |  94.1 | 13.91
Output  | 0.031392   | 0.036556   | 0.039825   |   1.4 |  0.02
Modify  | 9.6186     | 16.84      | 26.708     | 112.7 | 10.01
Other   |            | 1.136      |            |       |  0.68

Nlocal:    6050 ave 6080 max 6011 min
Histogram: 1 1 2 4 1 9 7 2 2 3
Nghost:    5892.5 ave 5932 max 5863 min
Histogram: 3 2 2 8 8 1 5 1 1 1
Neighs:    0 ave 0 max 0 min
Histogram: 32 0 0 0 0 0 0 0 0 0
FullNghs:  207719 ave 208749 max 206424 min
Histogram: 1 2 2 3 4 4 8 3 2 3

Total # of neighbors = 6646996
Ave neighs/atom = 34.3337
Neighbor list builds = 1
Dangerous builds = 0
unfix		NPT
variable	length equal lx/${LC}
variable	length equal lx/5.43

################### Geometrical Parameters After Relaxation ###############################
# Thermostat_width
variable	TW equal ${length}/40
variable	TW equal 50.2033139921459/40
# Hot_Start
variable	hs equal ${length}/4-${TW}
variable	hs equal 50.2033139921459/4-${TW}
variable	hs equal 50.2033139921459/4-1.25508284980365
# Hot_End
variable	he equal ${length}/4+${TW}
variable	he equal 50.2033139921459/4+${TW}
variable	he equal 50.2033139921459/4+1.25508284980365
# Cold_Start
variable	cs equal 3*${length}/4-${TW}
variable	cs equal 3*50.2033139921459/4-${TW}
variable	cs equal 3*50.2033139921459/4-1.25508284980365
# Cold_End
variable	ce equal 3*${length}/4+${TW}
variable	ce equal 3*50.2033139921459/4+${TW}
variable	ce equal 3*50.2033139921459/4+1.25508284980365
###########################################################################################

################### Defining Thermostat ###################################################
region 		hot block ${hs} ${he} EDGE EDGE EDGE EDGE
region 		hot block 11.2957456482328 ${he} EDGE EDGE EDGE EDGE
region 		hot block 11.2957456482328 13.8059113478401 EDGE EDGE EDGE EDGE
region 		cold block ${cs} ${ce} EDGE EDGE EDGE EDGE
region 		cold block 36.3974026443058 ${ce} EDGE EDGE EDGE EDGE
region 		cold block 36.3974026443058 38.9075683439131 EDGE EDGE EDGE EDGE
group		test region cold
9577 atoms in group test
group		test1 region hot
9567 atoms in group test1
compute		Thot all temp/region hot
compute         Tcold all temp/region cold
###########################################################################################

fix		NVT all nvt temp $T $T ${tdamp}
fix		NVT all nvt temp 300 $T ${tdamp}
fix		NVT all nvt temp 300 300 ${tdamp}
fix		NVT all nvt temp 300 300 0.05
thermo		1000
thermo_style	custom step temp
run		${tnvt}
run		40000
Per MPI rank memory allocation (min/avg/max) = 4.118 | 4.119 | 4.121 Mbytes
Step Temp 
    5001    299.97852 
    6000    301.16892 
    7000      301.193 
    8000    300.40348 
    9000    300.29686 
   10000    300.87547 
   11000    301.60593 
   12000    299.94213 
   13000    301.50343 
   14000    299.65188 
   15000    300.43595 
   16000    300.53086 
   17000    300.98884 
   18000    298.73573 
   19000    300.30451 
   20000    300.08375 
   21000    300.73654 
   22000    299.23425 
   23000    298.44532 
   24000    300.82957 
   25000     298.6819 
   26000    299.71843 
   27000    298.98537 
   28000    300.35394 
   29000    300.18897 
   30000    299.77818 
   31000    300.58283 
   32000    300.18752 
   33000    301.13567 
   34000    298.26939 
   35000    300.42339 
   36000    301.00515 
   37000    300.62227 
   38000    301.74156 
   39000    298.76761 
   40000    300.65979 
   41000    300.24189 
   42000     300.7301 
   43000     299.5056 
   44000    299.52315 
   45000    300.02532 
   45001    300.05039 
Loop time of 1367.47 on 32 procs for 40000 steps with 193600 atoms

Performance: 1.264 ns/day, 18.993 hours/ns, 29.251 timesteps/s
84.9% CPU use with 32 MPI tasks x no OpenMP threads

MPI task timing breakdown:
Section |  min time  |  avg time  |  max time  |%varavg| %total
---------------------------------------------------------------
Pair    | 1015.3     | 1027.9     | 1035.7     |  15.9 | 75.17
Neigh   | 0          | 0          | 0          |   0.0 |  0.00
Comm    | 152.1      | 206.05     | 257.97     | 226.9 | 15.07
Output  | 0.024425   | 0.02684    | 0.030149   |   1.1 |  0.00
Modify  | 67.084     | 115.9      | 163.89     | 293.2 |  8.48
Other   |            | 17.58      |            |       |  1.29

Nlocal:    6050 ave 6101 max 6004 min
Histogram: 3 3 2 3 5 4 6 3 1 2
Nghost:    5892.5 ave 5939 max 5842 min
Histogram: 2 1 3 6 4 5 3 2 3 3
Neighs:    0 ave 0 max 0 min
Histogram: 32 0 0 0 0 0 0 0 0 0
FullNghs:  209865 ave 211765 max 208107 min
Histogram: 3 3 3 1 4 6 7 3 0 2

Total # of neighbors = 6715688
Ave neighs/atom = 34.6885
Neighbor list builds = 0
Dangerous builds = 0
velocity	all scale $T
velocity	all scale 300
unfix		NVT

fix		NVE all nve
fix		hot all langevin ${thi} ${thi} ${tdamp} 389516 tally yes
fix		hot all langevin 319.9225 ${thi} ${tdamp} 389516 tally yes
fix		hot all langevin 319.9225 319.9225 ${tdamp} 389516 tally yes
fix		hot all langevin 319.9225 319.9225 0.05 389516 tally yes
fix_modify	hot temp Thot
fix		cold all langevin ${tlo} ${tlo} ${tdamp} 46579 tally yes
fix		cold all langevin 280.0775 ${tlo} ${tdamp} 46579 tally yes
fix		cold all langevin 280.0775 280.0775 ${tdamp} 46579 tally yes
fix		cold all langevin 280.0775 280.0775 0.05 46579 tally yes
fix_modify	cold temp Tcold

thermo_style	custom step temp c_Thot c_Tcold f_hot f_cold
run		${t1nve}
run		100000
Per MPI rank memory allocation (min/avg/max) = 4.868 | 4.869 | 4.871 Mbytes
Step Temp c_Thot c_Tcold f_hot f_cold 
   45001          300    298.10384    301.33691           -0           -0 
   46000     300.1496    318.92927    286.28619    -89.50599    86.503873 
   47000    300.96275    322.42569    281.75605   -122.97483    103.49605 
   48000    299.85671     319.8168    283.49642   -140.79877    127.44446 
   49000    300.96613     318.1191    282.62731   -164.60084    154.44263 
   50000     300.6809    321.13482    280.75815   -180.49987    180.87567 
   51000    300.50265    324.20225    281.45299    -214.5426    213.02154 
   52000    299.73861    321.37706    280.45547   -242.22144    245.27682 
   53000    300.41744    318.08617    281.41548   -254.80866    277.06695 
   54000    300.81893    318.24921    284.25269    -292.2019    311.32432 
   55000    299.98897     316.7761    282.72956   -323.66339    351.74038 
   56000    299.95459    321.89494    284.76671   -367.41171    381.28319 
   57000    298.93977    317.55224    281.08128   -396.94667    417.45652 
   58000     300.4372    317.17284    284.70199   -434.63795    444.92807 
   59000    300.24932    320.13432    285.17585   -479.60192    484.05154 
   60000    299.56576    321.61184    279.56081   -522.88773    527.36375 
   61000    300.07093    323.10674    280.07218    -559.2621    573.01282 
   62000    300.28121    317.07027    284.13743   -607.70665    612.42669 
   63000    300.58275    318.36384    283.37921    -637.6857    652.87086 
   64000    300.62479    316.97564    285.95133   -670.08355    691.90721 
   65000    300.38417     320.8374    281.52156   -713.86116    724.10163 
   66000    300.47062    319.33493    276.02316   -758.22029    769.54007 
   67000    299.95681    322.30739    282.31912   -792.68502    806.79526 
   68000    300.65152    319.31265    280.22082   -820.48788    836.00327 
   69000    299.76183    319.95332    286.86079    -854.9487    870.40341 
   70000    300.62193    325.48015    285.35838   -903.21577    911.50108 
   71000    300.31604    317.63961    283.08808   -932.66103    951.74421 
   72000    299.99755    318.41834    281.97857   -970.85765    988.38393 
   73000    300.14613    317.48805    282.36014   -1003.7264    1036.8087 
   74000    299.88629    314.88045    285.49801   -1046.5357    1066.5983 
   75000    300.36439    321.23754    282.11276   -1085.2657    1101.7678 
   76000    299.60405    313.18927    284.57245   -1104.7616     1137.049 
   77000    299.37886    310.64498    276.60784   -1137.3363    1189.0809 
   78000    300.29453    318.18983    283.32907    -1178.769    1223.7399 
   79000    299.57754    318.85426    283.17869   -1227.6676    1259.9757 
   80000    299.42411    316.11122     283.2482   -1253.9999    1297.7271 
   81000    300.79815    322.72693    279.63833   -1308.2186    1340.5053 
   82000    300.23975    323.71581    281.99683   -1345.4678    1378.3166 
   83000    299.99338    317.79403    278.85752   -1377.2635    1411.2873 
   84000    299.46864    319.16932    281.74487   -1415.9387    1443.9906 
   85000    299.01312    319.09911    281.35148    -1448.678    1481.2281 
   86000    299.76486    312.64736    277.41978   -1482.1005    1523.5626 
   87000    300.28358     313.8428    280.46721   -1521.5216    1562.1437 
   88000     299.7761    316.52165    278.21812    -1558.035    1604.2668 
   89000    300.01585    318.46303    281.74082   -1601.3959    1641.1826 
   90000    300.21863    316.86542    282.94903   -1636.6562     1676.877 
   91000    300.68171     323.6789    283.03871    -1690.238    1706.9096 
   92000    300.04143    316.38341    282.75838   -1721.8059    1753.9058 
   93000    300.08905     319.8816    280.22474   -1757.8436    1789.0752 
   94000    300.29728    314.21845    280.82029   -1796.3459    1819.1582 
   95000    299.86015    316.31383    283.41026   -1834.3833    1859.7084 
   96000    299.72406    318.41712    284.03159   -1878.9874    1896.1107 
   97000    300.92884    319.72877    279.35864   -1915.0589     1942.469 
   98000    299.60529    319.16914    280.66394   -1945.5746    1988.9974 
   99000     299.2289    321.35691     277.4539   -1985.8786    2031.2691 
  100000    299.93795    318.69661    282.36757    -2017.528    2055.7497 
  101000    300.52765    319.22956    282.74096   -2057.3053    2089.6861 
  102000    300.78057    323.98908    284.14126   -2108.7252    2126.0347 
  103000    299.48313    321.50597    278.13418   -2141.7187     2166.697 
  104000    299.69943    316.97729    280.27537    -2175.537     2207.815 
  105000     300.0313    322.01266    282.60796   -2224.6861    2241.5832 
  106000    300.08391    323.25556    280.66933   -2264.0037    2284.2185 
  107000    300.60339    320.58514    284.31667   -2298.2574    2314.5232 
  108000    299.36299    316.85941    280.09279   -2334.4067     2365.905 
  109000    299.78657    318.29163    281.42723   -2377.2894    2399.8429 
  110000    299.67964    321.08526    280.86728   -2412.8517    2442.3426 
  111000    299.45082    322.29951    278.39283   -2444.4903    2488.4169 
  112000    300.61762    321.09449    282.37761   -2485.8749    2523.4225 
  113000    299.63367     315.8584    281.20912   -2517.8669    2565.3835 
  114000    300.44737    318.68209    281.38428   -2566.0278    2601.1907 
  115000    299.28796    314.77492    283.99262   -2610.6137    2643.2254 
  116000    300.63061    317.84944     279.1664   -2642.2109      2681.84 
  117000    299.73212     322.1201    280.84584   -2686.4101    2719.7422 
  118000    300.96663    320.42428    280.41728   -2719.3205    2766.2248 
  119000    300.95916    320.46133    280.99464   -2767.3068    2800.0662 
  120000    300.45475    323.29103    282.88317   -2814.4669    2820.4033 
  121000    300.35612    320.66038    283.17687   -2847.7897    2871.0108 
  122000    300.01107    318.25354    280.80673   -2892.4386    2915.6992 
  123000    300.53442     320.2789    285.14119   -2936.4757    2944.3291 
  124000    300.50966    316.58379    277.11111   -2962.7573    3002.0084 
  125000    299.99058    319.84631    280.83572   -3008.5812    3022.9561 
  126000    300.77868    316.62273    281.19473   -3042.4083    3060.3544 
  127000    299.61375    313.68941    282.97019   -3078.9921    3111.2565 
  128000    300.48787    316.78359    280.18558   -3107.7916    3148.7098 
  129000    299.88002    319.73381    283.22034   -3155.3962    3180.3559 
  130000    299.83912     315.7454    277.61938   -3181.6901    3229.6474 
  131000    300.20474    319.34111    284.20962   -3218.3123    3252.8506 
  132000      299.197    318.19844    278.10127    -3254.582    3296.1835 
  133000    299.72001    320.59791    282.48802   -3291.8043    3331.8925 
  134000    298.75722    313.65957    278.22516   -3329.2357     3379.613 
  135000    299.35279    319.82035    280.24925   -3377.7892    3412.5214 
  136000    299.77043    318.30623    284.35978   -3411.7459    3444.0663 
  137000    299.65124     316.4177    280.10142   -3449.2235    3497.6076 
  138000     299.9968    319.84807    280.33764   -3493.5519    3521.8647 
  139000    300.49726    320.94646    279.58478   -3532.1851    3549.6474 
  140000    300.05087    320.60398    279.44074   -3560.3921    3586.6269 
  141000    300.13667    317.35158    281.80386   -3598.6057    3622.5752 
  142000    300.40456    316.12187    281.00422   -3645.5241    3672.6838 
  143000    300.02816    317.79122    280.91564   -3671.3105    3697.8126 
  144000    300.12924    320.77138    281.62356   -3714.1906    3741.2129 
  145000    300.20291     317.0529    281.04768   -3751.8533    3782.2288 
  145001    300.17787    317.23685     280.9692   -3752.1456    3782.5148 
Loop time of 3530.94 on 32 procs for 100000 steps with 193600 atoms

Performance: 1.223 ns/day, 19.616 hours/ns, 28.321 timesteps/s
85.1% CPU use with 32 MPI tasks x no OpenMP threads

MPI task timing breakdown:
Section |  min time  |  avg time  |  max time  |%varavg| %total
---------------------------------------------------------------
Pair    | 2533.9     | 2570       | 2615.6     |  39.6 | 72.78
Neigh   | 0          | 0          | 0          |   0.0 |  0.00
Comm    | 352.31     | 514.58     | 624.77     | 351.1 | 14.57
Output  | 0.10764    | 0.11417    | 0.1177     |   0.7 |  0.00
Modify  | 288.01     | 409.43     | 529.88     | 380.0 | 11.60
Other   |            | 36.83      |            |       |  1.04

Nlocal:    6050 ave 6087 max 6002 min
Histogram: 2 3 1 3 4 3 2 5 5 4
Nghost:    5892.5 ave 5941 max 5856 min
Histogram: 4 4 6 1 4 3 4 1 3 2
Neighs:    0 ave 0 max 0 min
Histogram: 32 0 0 0 0 0 0 0 0 0
FullNghs:  209934 ave 211293 max 208141 min
Histogram: 1 4 1 4 4 2 2 5 4 5

Total # of neighbors = 6717890
Ave neighs/atom = 34.6998
Neighbor list builds = 0
Dangerous builds = 0

# thermal conductivity calculation
# reset langevin thermostats to zero energy accumulation
reset_timestep 0
thermo		$c
thermo		500000
compute		ke all ke/atom
variable	temp atom c_ke/1.5/8.617332478e-5
fix		hot all langevin ${thi} ${thi} ${tdamp} 389516 tally yes
fix		hot all langevin 319.9225 ${thi} ${tdamp} 389516 tally yes
fix		hot all langevin 319.9225 319.9225 ${tdamp} 389516 tally yes
fix		hot all langevin 319.9225 319.9225 0.05 389516 tally yes
fix_modify	hot temp Thot
fix		cold all langevin ${tlo} ${tlo} ${tdamp} 46579 tally yes
fix		cold all langevin 280.0775 ${tlo} ${tdamp} 46579 tally yes
fix		cold all langevin 280.0775 280.0775 ${tdamp} 46579 tally yes
fix		cold all langevin 280.0775 280.0775 0.05 46579 tally yes
fix_modify	cold temp Tcold

compute		ch all chunk/atom bin/1d x lower 0.02 units reduced
fix		11 all ave/chunk $a $b $c ch v_temp file sw_${P}.langevin
fix		11 all ave/chunk 100 $b $c ch v_temp file sw_${P}.langevin
fix		11 all ave/chunk 100 5000 $c ch v_temp file sw_${P}.langevin
fix		11 all ave/chunk 100 5000 500000 ch v_temp file sw_${P}.langevin
fix		11 all ave/chunk 100 5000 500000 ch v_temp file sw_30.langevin
thermo_style	custom step temp c_Thot c_Tcold f_hot f_cold

run		${t2nve}
run		500000
Per MPI rank memory allocation (min/avg/max) = 5.118 | 5.12 | 5.121 Mbytes
Step Temp c_Thot c_Tcold f_hot f_cold 
       0    300.17787    317.55094    281.30257           -0           -0 
  500000    300.03259    316.41597    283.17993   -19139.036    19143.997 
Loop time of 17420 on 32 procs for 500000 steps with 193600 atoms

Performance: 1.240 ns/day, 19.356 hours/ns, 28.703 timesteps/s
85.6% CPU use with 32 MPI tasks x no OpenMP threads

MPI task timing breakdown:
Section |  min time  |  avg time  |  max time  |%varavg| %total
---------------------------------------------------------------
Pair    | 12664      | 12838      | 13010      |  78.2 | 73.70
Neigh   | 0          | 0          | 0          |   0.0 |  0.00
Comm    | 1796.3     | 2526.7     | 3011.1     | 777.0 | 14.50
Output  | 0.081665   | 0.097341   | 0.1034     |   2.9 |  0.00
Modify  | 1343.2     | 1880.5     | 2519.2     | 912.0 | 10.79
Other   |            | 174.6      |            |       |  1.00

Nlocal:    6050 ave 6078 max 6021 min
Histogram: 3 3 2 2 5 4 3 5 2 3
Nghost:    5892.41 ave 5922 max 5865 min
Histogram: 3 2 6 2 4 5 2 2 3 3
Neighs:    0 ave 0 max 0 min
Histogram: 32 0 0 0 0 0 0 0 0 0
FullNghs:  209895 ave 210975 max 208702 min
Histogram: 3 1 5 3 2 4 5 2 4 3

Total # of neighbors = 6716636
Ave neighs/atom = 34.6934
Neighbor list builds = 0
Dangerous builds = 0
clear
next		P
jump		Si.in
 units       metal
#----------------------------- User Input Variables --------------------------------------
################### Geometrical Parameters ###############################
variable	P index 29 30 31 32
variable	W equal 22
# Lattice Constant
variable	LC equal 5.43
# Length
variable	L equal 50
# Width
#variable	W equal 6
# Height
variable	H equal ${W}
variable	H equal 22
################### Simulation Condition ###############################
#DT/DX=cte
variable	cte equal 1.5938
log         sw_${P}.log
log         sw_31.log
